s 0.046846055 _1_ MAC  --- 0 message 32 [0.00 -1 1] ------- [1:255 -1:255 32 0] 
r 0.089846733 _0_ MAC  --- 0 message 32 [0.00 -1 1] ------- [1:255 -1:255 32 0] 
s 0.256435103 _2_ MAC  --- 1 message 32 [0.00 -1 2] ------- [2:255 -1:255 32 0] 
s 1.147877223 _0_ MAC  --- 2 message 32 [0.00 -1 0] ------- [0:255 -1:255 32 0] 
r 1.190877901 _1_ MAC  --- 2 message 32 [0.00 -1 0] ------- [0:255 -1:255 32 0] 
s 12.112324679 _0_ MAC  --- 3 message 32 [0.00 -1 0] ------- [0:255 -1:255 32 0] 
r 12.155325357 _1_ MAC  --- 3 message 32 [0.00 -1 0] ------- [0:255 -1:255 32 0] 
s 12.378164995 _2_ MAC  --- 4 message 32 [0.00 -1 2] ------- [2:255 -1:255 32 0] 
s 13.207675953 _1_ MAC  --- 5 message 32 [0.00 -1 1] ------- [1:255 -1:255 32 0] 
r 13.250676631 _0_ MAC  --- 5 message 32 [0.00 -1 1] ------- [1:255 -1:255 32 0] 
s 14.340337557 _1_ MAC  --- 6 message 44 [0.00 -1 1] ------- [1:255 -1:255 32 0] 
r 14.383338236 _0_ MAC  --- 6 message 44 [0.00 -1 1] ------- [1:255 -1:255 32 0] 
s 15.544086552 _0_ MAC  --- 7 message 32 [0.00 -1 0] ------- [0:255 -1:255 32 0] 
r 15.587087230 _1_ MAC  --- 7 message 32 [0.00 -1 0] ------- [0:255 -1:255 32 0] 
s 26.858928846 _2_ MAC  --- 8 message 32 [0.00 -1 2] ------- [2:255 -1:255 32 0] 
s 27.017930061 _1_ MAC  --- 9 message 44 [0.00 -1 1] ------- [1:255 -1:255 32 0] 
r 27.060930739 _0_ MAC  --- 9 message 44 [0.00 -1 1] ------- [1:255 -1:255 32 0] 
s 28.762554995 _0_ MAC  --- 10 message 32 [0.00 -1 0] ------- [0:255 -1:255 32 0] 
r 28.805555673 _1_ MAC  --- 10 message 32 [0.00 -1 0] ------- [0:255 -1:255 32 0] 
M 33.00000 0 (83.36, 239.44, 0.00), (89.66, 283.49), 19.15
s 39.052734207 _1_ MAC  --- 11 message 44 [0.00 -1 1] ------- [1:255 -1:255 32 0] 
r 39.095734802 _0_ MAC  --- 11 message 44 [0.00 -1 1] ------- [1:255 -1:255 32 0] 
s 41.322632516 _2_ MAC  --- 12 message 32 [0.00 -1 2] ------- [2:255 -1:255 32 0] 
s 43.364598498 _0_ MAC  --- 13 message 32 [0.00 -1 0] ------- [0:255 -1:255 32 0] 
r 43.407599093 _1_ MAC  --- 13 message 32 [0.00 -1 0] ------- [0:255 -1:255 32 0] 
M 50.00000 2 (591.26, 199.37, 0.00), (369.46, 170.52), 3.37
M 51.00000 1 (257.05, 345.36, 0.00), (221.83, 80.86), 14.91
s 51.771370727 _1_ MAC  --- 14 message 44 [0.00 -1 1] ------- [1:255 -1:255 32 0] 
r 51.814371305 _0_ MAC  --- 14 message 44 [0.00 -1 1] ------- [1:255 -1:255 32 0] 
s 54.862174277 _0_ MAC  --- 15 message 32 [0.00 -1 0] ------- [0:255 -1:255 32 0] 
r 54.905174810 _1_ MAC  --- 15 message 32 [0.00 -1 0] ------- [0:255 -1:255 32 0] 
s 56.120699875 _2_ MAC  --- 16 message 32 [0.00 -1 2] ------- [2:255 -1:255 32 0] 
s 64.322704194 _1_ MAC  --- 17 message 44 [0.00 -1 1] ------- [1:255 -1:255 32 0] 
r 64.365704845 _0_ MAC  --- 17 message 44 [0.00 -1 1] ------- [1:255 -1:255 32 0] 
s 67.054487730 _0_ MAC  --- 18 message 32 [0.00 -1 0] ------- [0:255 -1:255 32 0] 
r 67.097488470 _1_ MAC  --- 18 message 32 [0.00 -1 0] ------- [0:255 -1:255 32 0] 
s 70.650178593 _2_ MAC  --- 19 message 32 [0.00 -1 2] ------- [2:255 -1:255 32 0] 
s 77.150432463 _1_ MAC  --- 20 message 44 [0.00 -1 1] ------- [1:255 -1:255 32 0] 
r 77.193433270 _0_ MAC  --- 20 message 44 [0.00 -1 1] ------- [1:255 -1:255 32 0] 
s 79.008431580 _0_ MAC  --- 21 message 32 [0.00 -1 0] ------- [0:255 -1:255 32 0] 
r 79.051432387 _1_ MAC  --- 21 message 32 [0.00 -1 0] ------- [0:255 -1:255 32 0] 
s 84.770970500 _2_ MAC  --- 22 message 32 [0.00 -1 2] ------- [2:255 -1:255 32 0] 
s 89.060924728 _1_ MAC  --- 23 message 44 [0.00 -1 1] ------- [1:255 -1:255 32 0] 
r 89.103925535 _0_ MAC  --- 23 message 44 [0.00 -1 1] ------- [1:255 -1:255 32 0] 
s 92.100502875 _0_ MAC  --- 24 message 32 [0.00 -1 0] ------- [0:255 -1:255 32 0] 
r 92.143503682 _1_ MAC  --- 24 message 32 [0.00 -1 0] ------- [0:255 -1:255 32 0] 
s 98.014550140 _2_ MAC  --- 25 message 32 [0.00 -1 2] ------- [2:255 -1:255 32 0] 
r 98.057550909 _1_ MAC  --- 25 message 32 [0.00 -1 2] ------- [2:255 -1:255 32 0] 
s 100.656023660 _1_ MAC  --- 26 message 44 [0.00 -1 1] ------- [1:255 -1:255 32 0] 
r 100.699024400 _2_ MAC  --- 26 message 44 [0.00 -1 1] ------- [1:255 -1:255 32 0] 
r 100.699024467 _0_ MAC  --- 26 message 44 [0.00 -1 1] ------- [1:255 -1:255 32 0] 
s 106.119468793 _0_ MAC  --- 27 message 44 [0.00 -1 0] ------- [0:255 -1:255 32 0] 
r 106.162469600 _1_ MAC  --- 27 message 44 [0.00 -1 0] ------- [0:255 -1:255 32 0] 
s 110.087664684 _1_ MAC  --- 28 message 32 [0.00 -1 1] ------- [1:255 -1:255 32 0] 
r 110.130665324 _2_ MAC  --- 28 message 32 [0.00 -1 1] ------- [1:255 -1:255 32 0] 
r 110.130665490 _0_ MAC  --- 28 message 32 [0.00 -1 1] ------- [1:255 -1:255 32 0] 
s 112.028827038 _2_ MAC  --- 29 message 32 [0.00 -1 2] ------- [2:255 -1:255 32 0] 
r 112.071827659 _1_ MAC  --- 29 message 32 [0.00 -1 2] ------- [2:255 -1:255 32 0] 
s 113.057413144 _2_ MAC  --- 30 message 44 [0.00 -1 2] ------- [2:255 -1:255 32 0] 
r 113.100413754 _1_ MAC  --- 30 message 44 [0.00 -1 2] ------- [2:255 -1:255 32 0] 
s 114.029614668 _1_ MAC  --- 31 message 44 [0.00 -1 1] ------- [1:255 -1:255 32 0] 
r 114.072615267 _2_ MAC  --- 31 message 44 [0.00 -1 1] ------- [1:255 -1:255 32 0] 
r 114.072615474 _0_ MAC  --- 31 message 44 [0.00 -1 1] ------- [1:255 -1:255 32 0] 
s 119.798903105 _0_ MAC  --- 32 message 44 [0.00 -1 0] ------- [0:255 -1:255 32 0] 
r 119.841903912 _1_ MAC  --- 32 message 44 [0.00 -1 0] ------- [0:255 -1:255 32 0] 
s 122.156528065 _0_ MAC  --- 33 message 32 [0.00 -1 0] ------- [0:255 -1:255 32 0] 
r 122.199528871 _1_ MAC  --- 33 message 32 [0.00 -1 0] ------- [0:255 -1:255 32 0] 
s 123.322803839 _2_ MAC  --- 34 message 32 [0.00 -1 2] ------- [2:255 -1:255 32 0] 
r 123.365804415 _1_ MAC  --- 34 message 32 [0.00 -1 2] ------- [2:255 -1:255 32 0] 
s 125.372018963 _1_ MAC  --- 35 message 44 [0.00 -1 1] ------- [1:255 -1:255 32 0] 
r 125.415019539 _2_ MAC  --- 35 message 44 [0.00 -1 1] ------- [1:255 -1:255 32 0] 
r 125.415019769 _0_ MAC  --- 35 message 44 [0.00 -1 1] ------- [1:255 -1:255 32 0] 
s 127.936679222 _0_ AGT  --- 36 cbr 512 [0.00 0 0] ------- [0:0 2:0 32 0] [0] 0 3
s 127.952684222 _0_ MAC  --- 0 ARP 28 [0.00 -1 0] ------- [REQUEST 0/0 0/1]
r 127.995685028 _1_ MAC  --- 0 ARP 28 [0.00 -1 0] ------- [REQUEST 0/0 0/1]
s 128.041690028 _1_ MAC  --- 0 RTS 10 [0.07 0 1] 
s 128.052690835 _0_ MAC  --- 0 CTS 10 [0.06 1 0] 
s 128.063691641 _1_ MAC  --- 0 ARP 28 [0.01 0 1] ------- [REPLY 1/1 0/0]
s 128.106692447 _0_ MAC  --- 0 ACK 10 [0.00 1 0] 
r 128.106692447 _0_ MAC  --- 0 ARP 28 [0.01 0 1] ------- [REPLY 1/1 0/0]
s 128.156690835 _0_ MAC  --- 0 RTS 10 [0.07 1 0] 
s 128.167691641 _1_ MAC  --- 0 CTS 10 [0.06 0 1] 
s 128.178692447 _0_ MAC  --- 36 cbr 532 [0.01 1 0] ------- [0:0 2:0 32 1] [0] 0 3
s 128.221693254 _1_ MAC  --- 0 ACK 10 [0.00 0 1] 
r 128.221693254 _1_ MAC  --- 36 cbr 532 [0.01 1 0] ------- [0:0 2:0 32 1] [0] 0 3
s 128.302691641 _1_ MAC  --- 0 ARP 28 [0.00 -1 1] ------- [REQUEST 1/1 0/2]
r 128.345692217 _2_ MAC  --- 0 ARP 28 [0.00 -1 1] ------- [REQUEST 1/1 0/2]
r 128.345692447 _0_ MAC  --- 0 ARP 28 [0.00 -1 1] ------- [REQUEST 1/1 0/2]
s 128.397697217 _2_ MAC  --- 0 RTS 10 [0.07 1 2] 
s 128.408697792 _1_ MAC  --- 0 CTS 10 [0.06 2 1] 
s 128.419698368 _2_ MAC  --- 0 ARP 28 [0.01 1 2] ------- [REPLY 2/2 1/1]
s 128.462698944 _1_ MAC  --- 0 ACK 10 [0.00 2 1] 
r 128.462698944 _1_ MAC  --- 0 ARP 28 [0.01 1 2] ------- [REPLY 2/2 1/1]
s 128.544697792 _1_ MAC  --- 0 RTS 10 [0.07 2 1] 
s 128.555698368 _2_ MAC  --- 0 CTS 10 [0.06 1 2] 
s 128.566698944 _1_ MAC  --- 36 cbr 532 [0.01 2 1] ------- [0:0 2:0 31 2] [0] 0 3
s 128.609699520 _2_ MAC  --- 0 ACK 10 [0.00 1 2] 
r 128.609699520 _2_ MAC  --- 36 cbr 532 [0.01 2 1] ------- [0:0 2:0 31 2] [0] 0 3
r 128.609724520 _2_ AGT  --- 36 cbr 532 [0.01 2 1] ------- [0:0 2:0 31 2] [0] 0 3
s 131.065608493 _0_ MAC  --- 37 message 56 [0.00 -1 0] ------- [0:255 -1:255 32 0] 
r 131.108609300 _1_ MAC  --- 37 message 56 [0.00 -1 0] ------- [0:255 -1:255 32 0] 
s 132.019666739 _0_ AGT  --- 38 cbr 512 [0.00 0 0] ------- [0:0 2:0 32 0] [1] 0 3
s 132.035691739 _0_ MAC  --- 0 RTS 10 [0.07 1 0] 
s 132.046692546 _1_ MAC  --- 0 CTS 10 [0.06 0 1] 
s 132.057693352 _0_ MAC  --- 38 cbr 532 [0.01 1 0] ------- [0:0 2:0 32 1] [1] 0 3
s 132.100694158 _1_ MAC  --- 0 ACK 10 [0.00 0 1] 
r 132.100694158 _1_ MAC  --- 38 cbr 532 [0.01 1 0] ------- [0:0 2:0 32 1] [1] 0 3
s 132.165692546 _1_ MAC  --- 0 RTS 10 [0.07 2 1] 
s 132.176693121 _2_ MAC  --- 0 CTS 10 [0.06 1 2] 
s 132.187693697 _1_ MAC  --- 38 cbr 532 [0.01 2 1] ------- [0:0 2:0 31 2] [1] 0 3
s 132.230694273 _2_ MAC  --- 0 ACK 10 [0.00 1 2] 
r 132.230694273 _2_ MAC  --- 38 cbr 532 [0.01 2 1] ------- [0:0 2:0 31 2] [1] 0 3
r 132.230719273 _2_ AGT  --- 38 cbr 532 [0.01 2 1] ------- [0:0 2:0 31 2] [1] 0 3
s 135.212173352 _2_ MAC  --- 39 message 56 [0.00 -1 2] ------- [2:255 -1:255 32 0] 
r 135.255173928 _1_ MAC  --- 39 message 56 [0.00 -1 2] ------- [2:255 -1:255 32 0] 
s 135.741286116 _0_ AGT  --- 40 cbr 512 [0.00 0 0] ------- [0:0 2:0 32 0] [2] 0 3
s 135.753311116 _0_ MAC  --- 0 RTS 10 [0.07 1 0] 
s 135.764311922 _1_ MAC  --- 0 CTS 10 [0.06 0 1] 
s 135.775312728 _0_ MAC  --- 40 cbr 532 [0.01 1 0] ------- [0:0 2:0 32 1] [2] 0 3
s 135.818313535 _1_ MAC  --- 0 ACK 10 [0.00 0 1] 
r 135.818313535 _1_ MAC  --- 40 cbr 532 [0.01 1 0] ------- [0:0 2:0 32 1] [2] 0 3
s 135.886311922 _1_ MAC  --- 0 RTS 10 [0.07 2 1] 
s 135.897312498 _2_ MAC  --- 0 CTS 10 [0.06 1 2] 
s 135.908313074 _1_ MAC  --- 40 cbr 532 [0.01 2 1] ------- [0:0 2:0 31 2] [2] 0 3
s 135.951313649 _2_ MAC  --- 0 ACK 10 [0.00 1 2] 
r 135.951313649 _2_ MAC  --- 40 cbr 532 [0.01 2 1] ------- [0:0 2:0 31 2] [2] 0 3
r 135.951338649 _2_ AGT  --- 40 cbr 532 [0.01 2 1] ------- [0:0 2:0 31 2] [2] 0 3
s 138.952409355 _1_ MAC  --- 41 message 44 [0.00 -1 1] ------- [1:255 -1:255 32 0] 
r 138.995409930 _2_ MAC  --- 41 message 44 [0.00 -1 1] ------- [1:255 -1:255 32 0] 
r 138.995410161 _0_ MAC  --- 41 message 44 [0.00 -1 1] ------- [1:255 -1:255 32 0] 
s 140.232845649 _0_ AGT  --- 42 cbr 512 [0.00 0 0] ------- [0:0 2:0 32 0] [3] 0 3
s 140.293870649 _0_ MAC  --- 0 RTS 10 [0.07 1 0] 
s 140.304871456 _1_ MAC  --- 0 CTS 10 [0.06 0 1] 
s 140.315872262 _0_ MAC  --- 42 cbr 532 [0.01 1 0] ------- [0:0 2:0 32 1] [3] 0 3
s 140.358873069 _1_ MAC  --- 0 ACK 10 [0.00 0 1] 
r 140.358873069 _1_ MAC  --- 42 cbr 532 [0.01 1 0] ------- [0:0 2:0 32 1] [3] 0 3
s 140.431871456 _1_ MAC  --- 0 RTS 10 [0.07 2 1] 
s 140.442872032 _2_ MAC  --- 0 CTS 10 [0.06 1 2] 
s 140.453872607 _1_ MAC  --- 42 cbr 532 [0.01 2 1] ------- [0:0 2:0 31 2] [3] 0 3
s 140.496873183 _2_ MAC  --- 0 ACK 10 [0.00 1 2] 
r 140.496873183 _2_ MAC  --- 42 cbr 532 [0.01 2 1] ------- [0:0 2:0 31 2] [3] 0 3
r 140.496898183 _2_ AGT  --- 42 cbr 532 [0.01 2 1] ------- [0:0 2:0 31 2] [3] 0 3
s 145.698283683 _0_ MAC  --- 43 message 56 [0.00 -1 0] ------- [0:255 -1:255 32 0] 
s 145.718224890 _0_ AGT  --- 44 cbr 512 [0.00 0 0] ------- [0:0 2:0 32 0] [4] 0 3
r 145.741284489 _1_ MAC  --- 43 message 56 [0.00 -1 0] ------- [0:255 -1:255 32 0] 
s 145.800283683 _0_ MAC  --- 0 RTS 10 [0.07 1 0] 
s 145.811284489 _1_ MAC  --- 0 CTS 10 [0.06 0 1] 
s 145.822285296 _0_ MAC  --- 44 cbr 532 [0.01 1 0] ------- [0:0 2:0 32 1] [4] 0 3
s 145.865286102 _1_ MAC  --- 0 ACK 10 [0.00 0 1] 
r 145.865286102 _1_ MAC  --- 44 cbr 532 [0.01 1 0] ------- [0:0 2:0 32 1] [4] 0 3
s 145.934284489 _1_ MAC  --- 0 RTS 10 [0.07 2 1] 
s 145.945285065 _2_ MAC  --- 0 CTS 10 [0.06 1 2] 
s 145.956285641 _1_ MAC  --- 44 cbr 532 [0.01 2 1] ------- [0:0 2:0 31 2] [4] 0 3
s 145.999286217 _2_ MAC  --- 0 ACK 10 [0.00 1 2] 
r 145.999286217 _2_ MAC  --- 44 cbr 532 [0.01 2 1] ------- [0:0 2:0 31 2] [4] 0 3
r 145.999311217 _2_ AGT  --- 44 cbr 532 [0.01 2 1] ------- [0:0 2:0 31 2] [4] 0 3
s 147.953016560 _0_ AGT  --- 45 cbr 512 [0.00 0 0] ------- [0:0 2:0 32 0] [5] 0 3
s 147.965041560 _0_ MAC  --- 0 RTS 10 [0.07 1 0] 
s 147.976042367 _1_ MAC  --- 0 CTS 10 [0.06 0 1] 
s 147.987043173 _0_ MAC  --- 45 cbr 532 [0.01 1 0] ------- [0:0 2:0 32 1] [5] 0 3
s 148.030043980 _1_ MAC  --- 0 ACK 10 [0.00 0 1] 
r 148.030043980 _1_ MAC  --- 45 cbr 532 [0.01 1 0] ------- [0:0 2:0 32 1] [5] 0 3
s 148.069042367 _1_ MAC  --- 0 RTS 10 [0.07 2 1] 
s 148.080042943 _2_ MAC  --- 0 CTS 10 [0.06 1 2] 
s 148.091043518 _1_ MAC  --- 45 cbr 532 [0.01 2 1] ------- [0:0 2:0 31 2] [5] 0 3
s 148.134044094 _2_ MAC  --- 0 ACK 10 [0.00 1 2] 
r 148.134044094 _2_ MAC  --- 45 cbr 532 [0.01 2 1] ------- [0:0 2:0 31 2] [5] 0 3
r 148.134069094 _2_ AGT  --- 45 cbr 532 [0.01 2 1] ------- [0:0 2:0 31 2] [5] 0 3
s 148.243138102 _2_ MAC  --- 46 message 56 [0.00 -1 2] ------- [2:255 -1:255 32 0] 
r 148.286138678 _1_ MAC  --- 46 message 56 [0.00 -1 2] ------- [2:255 -1:255 32 0] 
s 150.000000000 _1_ AGT  --- 47 tcp 40 [0.00 0 0] ------- [1:0 2:1 32 0] [0 0] 0 2
s 150.068025000 _1_ MAC  --- 0 RTS 10 [0.07 2 1] 
s 150.079025576 _2_ MAC  --- 0 CTS 10 [0.06 1 2] 
s 150.090026152 _1_ MAC  --- 47 tcp 60 [0.01 2 1] ------- [1:0 2:1 32 2] [0 0] 0 2
s 150.133026727 _2_ MAC  --- 0 ACK 10 [0.00 1 2] 
r 150.133026727 _2_ MAC  --- 47 tcp 60 [0.01 2 1] ------- [1:0 2:1 32 2] [0 0] 0 2
r 150.133051727 _2_ AGT  --- 47 tcp 60 [0.01 2 1] ------- [1:0 2:1 32 2] [0 0] 0 2
s 150.133051727 _2_ AGT  --- 48 ack 40 [0.00 0 0] ------- [2:1 1:0 32 0] [0 0] 0 2
s 150.201025576 _2_ MAC  --- 0 RTS 10 [0.07 1 2] 
s 150.212026152 _1_ MAC  --- 0 CTS 10 [0.06 2 1] 
s 150.223026727 _2_ MAC  --- 48 ack 60 [0.01 1 2] ------- [2:1 1:0 32 1] [0 0] 0 2
s 150.266027303 _1_ MAC  --- 0 ACK 10 [0.00 2 1] 
r 150.266027303 _1_ MAC  --- 48 ack 60 [0.01 1 2] ------- [2:1 1:0 32 1] [0 0] 0 2
r 150.266052303 _1_ AGT  --- 48 ack 60 [0.01 1 2] ------- [2:1 1:0 32 1] [0 0] 0 2
s 150.266052303 _1_ AGT  --- 49 tcp 1500 [0.00 0 0] ------- [1:0 2:1 32 0] [1 0] 0 2
s 150.266052303 _1_ AGT  --- 50 tcp 1500 [0.00 0 0] ------- [1:0 2:1 32 0] [2 0] 0 2
s 150.337026152 _1_ MAC  --- 0 RTS 10 [0.07 2 1] 
s 150.348026727 _2_ MAC  --- 0 CTS 10 [0.06 1 2] 
s 150.359027303 _1_ MAC  --- 49 tcp 1520 [0.01 2 1] ------- [1:0 2:1 32 2] [1 0] 0 2
s 150.402027879 _2_ MAC  --- 0 ACK 10 [0.00 1 2] 
r 150.402027879 _2_ MAC  --- 49 tcp 1520 [0.01 2 1] ------- [1:0 2:1 32 2] [1 0] 0 2
r 150.402052879 _2_ AGT  --- 49 tcp 1520 [0.01 2 1] ------- [1:0 2:1 32 2] [1 0] 0 2
s 150.402052879 _2_ AGT  --- 52 ack 40 [0.00 0 0] ------- [2:1 1:0 32 0] [1 0] 0 2
s 150.427028455 _1_ MAC  --- 51 message 44 [0.00 -1 1] ------- [1:255 -1:255 32 0] 
r 150.470029030 _2_ MAC  --- 51 message 44 [0.00 -1 1] ------- [1:255 -1:255 32 0] 
r 150.470029261 _0_ MAC  --- 51 message 44 [0.00 -1 1] ------- [1:255 -1:255 32 0] 
s 150.522029030 _2_ MAC  --- 0 RTS 10 [0.07 1 2] 
s 150.533029606 _1_ MAC  --- 0 CTS 10 [0.06 2 1] 
s 150.544030182 _2_ MAC  --- 52 ack 60 [0.01 1 2] ------- [2:1 1:0 32 1] [1 0] 0 2
s 150.587030758 _1_ MAC  --- 0 ACK 10 [0.00 2 1] 
r 150.587030758 _1_ MAC  --- 52 ack 60 [0.01 1 2] ------- [2:1 1:0 32 1] [1 0] 0 2
r 150.587055758 _1_ AGT  --- 52 ack 60 [0.01 1 2] ------- [2:1 1:0 32 1] [1 0] 0 2
s 150.587055758 _1_ AGT  --- 53 tcp 1500 [0.00 0 0] ------- [1:0 2:1 32 0] [3 0] 0 2
s 150.587055758 _1_ AGT  --- 54 tcp 1500 [0.00 0 0] ------- [1:0 2:1 32 0] [4 0] 0 2
s 150.630029606 _1_ MAC  --- 0 RTS 10 [0.07 2 1] 
s 150.641030182 _2_ MAC  --- 0 CTS 10 [0.06 1 2] 
s 150.652030758 _1_ MAC  --- 50 tcp 1520 [0.01 2 1] ------- [1:0 2:1 32 2] [2 0] 0 2
s 150.695031333 _2_ MAC  --- 0 ACK 10 [0.00 1 2] 
r 150.695031333 _2_ MAC  --- 50 tcp 1520 [0.01 2 1] ------- [1:0 2:1 32 2] [2 0] 0 2
r 150.695056333 _2_ AGT  --- 50 tcp 1520 [0.01 2 1] ------- [1:0 2:1 32 2] [2 0] 0 2
s 150.695056333 _2_ AGT  --- 55 ack 40 [0.00 0 0] ------- [2:1 1:0 32 0] [2 0] 0 2
s 150.773030182 _2_ MAC  --- 0 RTS 10 [0.07 1 2] 
s 150.784030758 _1_ MAC  --- 0 CTS 10 [0.06 2 1] 
s 150.795031333 _2_ MAC  --- 55 ack 60 [0.01 1 2] ------- [2:1 1:0 32 1] [2 0] 0 2
s 150.838031909 _1_ MAC  --- 0 ACK 10 [0.00 2 1] 
r 150.838031909 _1_ MAC  --- 55 ack 60 [0.01 1 2] ------- [2:1 1:0 32 1] [2 0] 0 2
r 150.838056909 _1_ AGT  --- 55 ack 60 [0.01 1 2] ------- [2:1 1:0 32 1] [2 0] 0 2
s 150.838056909 _1_ AGT  --- 56 tcp 1500 [0.00 0 0] ------- [1:0 2:1 32 0] [5 0] 0 2
s 150.838056909 _1_ AGT  --- 57 tcp 1500 [0.00 0 0] ------- [1:0 2:1 32 0] [6 0] 0 2
s 150.916030758 _1_ MAC  --- 0 RTS 10 [0.07 2 1] 
s 150.927031333 _2_ MAC  --- 0 CTS 10 [0.06 1 2] 
s 150.938031909 _1_ MAC  --- 53 tcp 1520 [0.01 2 1] ------- [1:0 2:1 32 2] [3 0] 0 2
s 150.981032485 _2_ MAC  --- 0 ACK 10 [0.00 1 2] 
r 150.981032485 _2_ MAC  --- 53 tcp 1520 [0.01 2 1] ------- [1:0 2:1 32 2] [3 0] 0 2
r 150.981057485 _2_ AGT  --- 53 tcp 1520 [0.01 2 1] ------- [1:0 2:1 32 2] [3 0] 0 2
s 150.981057485 _2_ AGT  --- 58 ack 40 [0.00 0 0] ------- [2:1 1:0 32 0] [3 0] 0 2
s 151.054031333 _2_ MAC  --- 0 RTS 10 [0.07 1 2] 
s 151.065031909 _1_ MAC  --- 0 CTS 10 [0.06 2 1] 
s 151.076032485 _2_ MAC  --- 58 ack 60 [0.01 1 2] ------- [2:1 1:0 32 1] [3 0] 0 2
s 151.119033061 _1_ MAC  --- 0 ACK 10 [0.00 2 1] 
r 151.119033061 _1_ MAC  --- 58 ack 60 [0.01 1 2] ------- [2:1 1:0 32 1] [3 0] 0 2
r 151.119058061 _1_ AGT  --- 58 ack 60 [0.01 1 2] ------- [2:1 1:0 32 1] [3 0] 0 2
s 151.119058061 _1_ AGT  --- 59 tcp 1500 [0.00 0 0] ------- [1:0 2:1 32 0] [7 0] 0 2
s 151.119058061 _1_ AGT  --- 60 tcp 1500 [0.00 0 0] ------- [1:0 2:1 32 0] [8 0] 0 2
s 151.201031909 _1_ MAC  --- 0 RTS 10 [0.07 2 1] 
s 151.212032485 _2_ MAC  --- 0 CTS 10 [0.06 1 2] 
s 151.223033061 _1_ MAC  --- 54 tcp 1520 [0.01 2 1] ------- [1:0 2:1 32 2] [4 0] 0 2
s 151.266033637 _2_ MAC  --- 0 ACK 10 [0.00 1 2] 
r 151.266033637 _2_ MAC  --- 54 tcp 1520 [0.01 2 1] ------- [1:0 2:1 32 2] [4 0] 0 2
r 151.266058637 _2_ AGT  --- 54 tcp 1520 [0.01 2 1] ------- [1:0 2:1 32 2] [4 0] 0 2
s 151.266058637 _2_ AGT  --- 61 ack 40 [0.00 0 0] ------- [2:1 1:0 32 0] [4 0] 0 2
s 151.287034212 _1_ MAC  --- 0 RTS 10 [0.07 2 1] 
s 151.298034788 _2_ MAC  --- 0 CTS 10 [0.06 1 2] 
s 151.309035364 _1_ MAC  --- 56 tcp 1520 [0.01 2 1] ------- [1:0 2:1 32 2] [5 0] 0 2
s 151.352035940 _2_ MAC  --- 0 ACK 10 [0.00 1 2] 
r 151.352035940 _2_ MAC  --- 56 tcp 1520 [0.01 2 1] ------- [1:0 2:1 32 2] [5 0] 0 2
r 151.352060940 _2_ AGT  --- 56 tcp 1520 [0.01 2 1] ------- [1:0 2:1 32 2] [5 0] 0 2
s 151.352060940 _2_ AGT  --- 62 ack 40 [0.00 0 0] ------- [2:1 1:0 32 0] [5 0] 0 2
s 151.403034788 _2_ MAC  --- 0 RTS 10 [0.07 1 2] 
s 151.414035364 _1_ MAC  --- 0 CTS 10 [0.06 2 1] 
s 151.425035940 _2_ MAC  --- 61 ack 60 [0.01 1 2] ------- [2:1 1:0 32 1] [4 0] 0 2
s 151.468036515 _1_ MAC  --- 0 ACK 10 [0.00 2 1] 
r 151.468036515 _1_ MAC  --- 61 ack 60 [0.01 1 2] ------- [2:1 1:0 32 1] [4 0] 0 2
r 151.468061515 _1_ AGT  --- 61 ack 60 [0.01 1 2] ------- [2:1 1:0 32 1] [4 0] 0 2
s 151.468061515 _1_ AGT  --- 63 tcp 1500 [0.00 0 0] ------- [1:0 2:1 32 0] [9 0] 0 2
s 151.468061515 _1_ AGT  --- 64 tcp 1500 [0.00 0 0] ------- [1:0 2:1 32 0] [10 0] 0 2
s 151.497035364 _1_ MAC  --- 0 RTS 10 [0.07 2 1] 
s 151.508035940 _2_ MAC  --- 0 CTS 10 [0.06 1 2] 
s 151.519036515 _1_ MAC  --- 57 tcp 1520 [0.01 2 1] ------- [1:0 2:1 32 2] [6 0] 0 2
s 151.562037091 _2_ MAC  --- 0 ACK 10 [0.00 1 2] 
r 151.562037091 _2_ MAC  --- 57 tcp 1520 [0.01 2 1] ------- [1:0 2:1 32 2] [6 0] 0 2
r 151.562062091 _2_ AGT  --- 57 tcp 1520 [0.01 2 1] ------- [1:0 2:1 32 2] [6 0] 0 2
s 151.562062091 _2_ AGT  --- 65 ack 40 [0.00 0 0] ------- [2:1 1:0 32 0] [6 0] 0 2
s 151.623035940 _2_ MAC  --- 0 RTS 10 [0.07 1 2] 
s 151.634036515 _1_ MAC  --- 0 CTS 10 [0.06 2 1] 
s 151.645037091 _2_ MAC  --- 62 ack 60 [0.01 1 2] ------- [2:1 1:0 32 1] [5 0] 0 2
s 151.688037667 _1_ MAC  --- 0 ACK 10 [0.00 2 1] 
r 151.688037667 _1_ MAC  --- 62 ack 60 [0.01 1 2] ------- [2:1 1:0 32 1] [5 0] 0 2
r 151.688062667 _1_ AGT  --- 62 ack 60 [0.01 1 2] ------- [2:1 1:0 32 1] [5 0] 0 2
s 151.688062667 _1_ AGT  --- 66 tcp 1500 [0.00 0 0] ------- [1:0 2:1 32 0] [11 0] 0 2
s 151.688062667 _1_ AGT  --- 67 tcp 1500 [0.00 0 0] ------- [1:0 2:1 32 0] [12 0] 0 2
s 151.731038243 _2_ MAC  --- 0 RTS 10 [0.07 1 2] 
s 151.742038819 _1_ MAC  --- 0 CTS 10 [0.06 2 1] 
s 151.753039394 _2_ MAC  --- 65 ack 60 [0.01 1 2] ------- [2:1 1:0 32 1] [6 0] 0 2
s 151.796039970 _1_ MAC  --- 0 ACK 10 [0.00 2 1] 
r 151.796039970 _1_ MAC  --- 65 ack 60 [0.01 1 2] ------- [2:1 1:0 32 1] [6 0] 0 2
r 151.796064970 _1_ AGT  --- 65 ack 60 [0.01 1 2] ------- [2:1 1:0 32 1] [6 0] 0 2
s 151.796064970 _1_ AGT  --- 68 tcp 1500 [0.00 0 0] ------- [1:0 2:1 32 0] [13 0] 0 2
s 151.796064970 _1_ AGT  --- 69 tcp 1500 [0.00 0 0] ------- [1:0 2:1 32 0] [14 0] 0 2
s 151.853038819 _1_ MAC  --- 0 RTS 10 [0.07 2 1] 
s 151.864039394 _2_ MAC  --- 0 CTS 10 [0.06 1 2] 
s 151.875039970 _1_ MAC  --- 59 tcp 1520 [0.01 2 1] ------- [1:0 2:1 32 2] [7 0] 0 2
s 151.918040546 _2_ MAC  --- 0 ACK 10 [0.00 1 2] 
r 151.918040546 _2_ MAC  --- 59 tcp 1520 [0.01 2 1] ------- [1:0 2:1 32 2] [7 0] 0 2
r 151.918065546 _2_ AGT  --- 59 tcp 1520 [0.01 2 1] ------- [1:0 2:1 32 2] [7 0] 0 2
s 151.918065546 _2_ AGT  --- 70 ack 40 [0.00 0 0] ------- [2:1 1:0 32 0] [7 0] 0 2
s 151.972041122 _1_ MAC  --- 0 RTS 10 [0.07 2 1] 
s 151.983041697 _2_ MAC  --- 0 CTS 10 [0.06 1 2] 
s 151.994042273 _1_ MAC  --- 60 tcp 1520 [0.01 2 1] ------- [1:0 2:1 32 2] [8 0] 0 2
s 152.037042849 _2_ MAC  --- 0 ACK 10 [0.00 1 2] 
r 152.037042849 _2_ MAC  --- 60 tcp 1520 [0.01 2 1] ------- [1:0 2:1 32 2] [8 0] 0 2
r 152.037067849 _2_ AGT  --- 60 tcp 1520 [0.01 2 1] ------- [1:0 2:1 32 2] [8 0] 0 2
s 152.037067849 _2_ AGT  --- 71 ack 40 [0.00 0 0] ------- [2:1 1:0 32 0] [8 0] 0 2
s 152.102041697 _2_ MAC  --- 0 RTS 10 [0.07 1 2] 
s 152.113042273 _1_ MAC  --- 0 CTS 10 [0.06 2 1] 
s 152.124042849 _2_ MAC  --- 70 ack 60 [0.01 1 2] ------- [2:1 1:0 32 1] [7 0] 0 2
s 152.167043425 _1_ MAC  --- 0 ACK 10 [0.00 2 1] 
r 152.167043425 _1_ MAC  --- 70 ack 60 [0.01 1 2] ------- [2:1 1:0 32 1] [7 0] 0 2
r 152.167068425 _1_ AGT  --- 70 ack 60 [0.01 1 2] ------- [2:1 1:0 32 1] [7 0] 0 2
s 152.167068425 _1_ AGT  --- 72 tcp 1500 [0.00 0 0] ------- [1:0 2:1 32 0] [15 0] 0 2
s 152.167068425 _1_ AGT  --- 73 tcp 1500 [0.00 0 0] ------- [1:0 2:1 32 0] [16 0] 0 2
s 152.207042273 _1_ MAC  --- 0 RTS 10 [0.07 2 1] 
s 152.218042849 _2_ MAC  --- 0 CTS 10 [0.06 1 2] 
s 152.229043425 _1_ MAC  --- 63 tcp 1520 [0.01 2 1] ------- [1:0 2:1 32 2] [9 0] 0 2
s 152.272044000 _2_ MAC  --- 0 ACK 10 [0.00 1 2] 
r 152.272044000 _2_ MAC  --- 63 tcp 1520 [0.01 2 1] ------- [1:0 2:1 32 2] [9 0] 0 2
r 152.272069000 _2_ AGT  --- 63 tcp 1520 [0.01 2 1] ------- [1:0 2:1 32 2] [9 0] 0 2
s 152.272069000 _2_ AGT  --- 74 ack 40 [0.00 0 0] ------- [2:1 1:0 32 0] [9 0] 0 2
s 152.329042849 _2_ MAC  --- 0 RTS 10 [0.07 1 2] 
s 152.340043425 _1_ MAC  --- 0 CTS 10 [0.06 2 1] 
s 152.351044000 _2_ MAC  --- 71 ack 60 [0.01 1 2] ------- [2:1 1:0 32 1] [8 0] 0 2
s 152.394044576 _1_ MAC  --- 0 ACK 10 [0.00 2 1] 
r 152.394044576 _1_ MAC  --- 71 ack 60 [0.01 1 2] ------- [2:1 1:0 32 1] [8 0] 0 2
r 152.394069576 _1_ AGT  --- 71 ack 60 [0.01 1 2] ------- [2:1 1:0 32 1] [8 0] 0 2
s 152.394069576 _1_ AGT  --- 75 tcp 1500 [0.00 0 0] ------- [1:0 2:1 32 0] [17 0] 0 2
s 152.394069576 _1_ AGT  --- 76 tcp 1500 [0.00 0 0] ------- [1:0 2:1 32 0] [18 0] 0 2
s 152.442045152 _2_ MAC  --- 0 RTS 10 [0.07 1 2] 
s 152.453045728 _1_ MAC  --- 0 CTS 10 [0.06 2 1] 
s 152.464046304 _2_ MAC  --- 74 ack 60 [0.01 1 2] ------- [2:1 1:0 32 1] [9 0] 0 2
s 152.501334289 _0_ AGT  --- 77 cbr 512 [0.00 0 0] ------- [0:0 2:0 32 0] [6] 0 3
s 152.507046879 _1_ MAC  --- 0 ACK 10 [0.00 2 1] 
r 152.507046879 _1_ MAC  --- 74 ack 60 [0.01 1 2] ------- [2:1 1:0 32 1] [9 0] 0 2
r 152.507071879 _1_ AGT  --- 74 ack 60 [0.01 1 2] ------- [2:1 1:0 32 1] [9 0] 0 2
s 152.507071879 _1_ AGT  --- 78 tcp 1500 [0.00 0 0] ------- [1:0 2:1 32 0] [19 0] 0 2
s 152.507071879 _1_ AGT  --- 79 tcp 1500 [0.00 0 0] ------- [1:0 2:1 32 0] [20 0] 0 2
s 152.548046534 _0_ MAC  --- 0 RTS 10 [0.07 1 0] 
s 152.559047341 _1_ MAC  --- 0 CTS 10 [0.06 0 1] 
s 152.570048147 _0_ MAC  --- 77 cbr 532 [0.01 1 0] ------- [0:0 2:0 32 1] [6] 0 3
s 152.613048953 _1_ MAC  --- 0 ACK 10 [0.00 0 1] 
r 152.613048953 _1_ MAC  --- 77 cbr 532 [0.01 1 0] ------- [0:0 2:0 32 1] [6] 0 3
s 152.683047341 _1_ MAC  --- 0 RTS 10 [0.07 2 1] 
s 152.694047916 _2_ MAC  --- 0 CTS 10 [0.06 1 2] 
s 152.705048492 _1_ MAC  --- 64 tcp 1520 [0.01 2 1] ------- [1:0 2:1 32 2] [10 0] 0 2
s 152.748049068 _2_ MAC  --- 0 ACK 10 [0.00 1 2] 
r 152.748049068 _2_ MAC  --- 64 tcp 1520 [0.01 2 1] ------- [1:0 2:1 32 2] [10 0] 0 2
r 152.748074068 _2_ AGT  --- 64 tcp 1520 [0.01 2 1] ------- [1:0 2:1 32 2] [10 0] 0 2
s 152.748074068 _2_ AGT  --- 80 ack 40 [0.00 0 0] ------- [2:1 1:0 32 0] [10 0] 0 2
s 152.790047916 _2_ MAC  --- 0 RTS 10 [0.07 1 2] 
s 152.801048492 _1_ MAC  --- 0 CTS 10 [0.06 2 1] 
s 152.812049068 _2_ MAC  --- 80 ack 60 [0.01 1 2] ------- [2:1 1:0 32 1] [10 0] 0 2
s 152.855049644 _1_ MAC  --- 0 ACK 10 [0.00 2 1] 
r 152.855049644 _1_ MAC  --- 80 ack 60 [0.01 1 2] ------- [2:1 1:0 32 1] [10 0] 0 2
r 152.855074644 _1_ AGT  --- 80 ack 60 [0.01 1 2] ------- [2:1 1:0 32 1] [10 0] 0 2
s 152.855074644 _1_ AGT  --- 81 tcp 1500 [0.00 0 0] ------- [1:0 2:1 32 0] [21 0] 0 2
s 152.855074644 _1_ AGT  --- 82 tcp 1500 [0.00 0 0] ------- [1:0 2:1 32 0] [22 0] 0 2
s 152.885048492 _1_ MAC  --- 0 RTS 10 [0.07 2 1] 
s 152.896049068 _2_ MAC  --- 0 CTS 10 [0.06 1 2] 
s 152.907049644 _1_ MAC  --- 66 tcp 1520 [0.01 2 1] ------- [1:0 2:1 32 2] [11 0] 0 2
s 152.950050219 _2_ MAC  --- 0 ACK 10 [0.00 1 2] 
r 152.950050219 _2_ MAC  --- 66 tcp 1520 [0.01 2 1] ------- [1:0 2:1 32 2] [11 0] 0 2
r 152.950075219 _2_ AGT  --- 66 tcp 1520 [0.01 2 1] ------- [1:0 2:1 32 2] [11 0] 0 2
s 152.950075219 _2_ AGT  --- 83 ack 40 [0.00 0 0] ------- [2:1 1:0 32 0] [11 0] 0 2
s 152.985049068 _2_ MAC  --- 0 RTS 10 [0.07 1 2] 
s 152.996049644 _1_ MAC  --- 0 CTS 10 [0.06 2 1] 
s 153.007050219 _2_ MAC  --- 83 ack 60 [0.01 1 2] ------- [2:1 1:0 32 1] [11 0] 0 2
s 153.050050795 _1_ MAC  --- 0 ACK 10 [0.00 2 1] 
r 153.050050795 _1_ MAC  --- 83 ack 60 [0.01 1 2] ------- [2:1 1:0 32 1] [11 0] 0 2
r 153.050075795 _1_ AGT  --- 83 ack 60 [0.01 1 2] ------- [2:1 1:0 32 1] [11 0] 0 2
s 153.050075795 _1_ AGT  --- 84 tcp 1500 [0.00 0 0] ------- [1:0 2:1 32 0] [23 0] 0 2
s 153.050075795 _1_ AGT  --- 85 tcp 1500 [0.00 0 0] ------- [1:0 2:1 32 0] [24 0] 0 2
s 153.127049644 _1_ MAC  --- 0 RTS 10 [0.07 2 1] 
s 153.138050219 _2_ MAC  --- 0 CTS 10 [0.06 1 2] 
s 153.149050795 _1_ MAC  --- 67 tcp 1520 [0.01 2 1] ------- [1:0 2:1 32 2] [12 0] 0 2
s 153.192051371 _2_ MAC  --- 0 ACK 10 [0.00 1 2] 
r 153.192051371 _2_ MAC  --- 67 tcp 1520 [0.01 2 1] ------- [1:0 2:1 32 2] [12 0] 0 2
r 153.192076371 _2_ AGT  --- 67 tcp 1520 [0.01 2 1] ------- [1:0 2:1 32 2] [12 0] 0 2
s 153.192076371 _2_ AGT  --- 86 ack 40 [0.00 0 0] ------- [2:1 1:0 32 0] [12 0] 0 2
s 153.223051947 _1_ MAC  --- 0 RTS 10 [0.07 2 1] 
s 153.234052523 _2_ MAC  --- 0 CTS 10 [0.06 1 2] 
s 153.245053098 _1_ MAC  --- 68 tcp 1520 [0.01 2 1] ------- [1:0 2:1 32 2] [13 0] 0 2
s 153.288053674 _2_ MAC  --- 0 ACK 10 [0.00 1 2] 
r 153.288053674 _2_ MAC  --- 68 tcp 1520 [0.01 2 1] ------- [1:0 2:1 32 2] [13 0] 0 2
r 153.288078674 _2_ AGT  --- 68 tcp 1520 [0.01 2 1] ------- [1:0 2:1 32 2] [13 0] 0 2
s 153.288078674 _2_ AGT  --- 87 ack 40 [0.00 0 0] ------- [2:1 1:0 32 0] [13 0] 0 2
s 153.327054250 _1_ MAC  --- 0 RTS 10 [0.07 2 1] 
s 153.338054826 _2_ MAC  --- 0 CTS 10 [0.06 1 2] 
s 153.349055401 _1_ MAC  --- 69 tcp 1520 [0.01 2 1] ------- [1:0 2:1 32 2] [14 0] 0 2
s 153.392055977 _2_ MAC  --- 0 ACK 10 [0.00 1 2] 
r 153.392055977 _2_ MAC  --- 69 tcp 1520 [0.01 2 1] ------- [1:0 2:1 32 2] [14 0] 0 2
r 153.392080977 _2_ AGT  --- 69 tcp 1520 [0.01 2 1] ------- [1:0 2:1 32 2] [14 0] 0 2
s 153.392080977 _2_ AGT  --- 88 ack 40 [0.00 0 0] ------- [2:1 1:0 32 0] [14 0] 0 2
s 153.443054826 _2_ MAC  --- 0 RTS 10 [0.07 1 2] 
s 153.454055401 _1_ MAC  --- 0 CTS 10 [0.06 2 1] 
s 153.465055977 _2_ MAC  --- 86 ack 60 [0.01 1 2] ------- [2:1 1:0 32 1] [12 0] 0 2
s 153.508056553 _1_ MAC  --- 0 ACK 10 [0.00 2 1] 
r 153.508056553 _1_ MAC  --- 86 ack 60 [0.01 1 2] ------- [2:1 1:0 32 1] [12 0] 0 2
r 153.508081553 _1_ AGT  --- 86 ack 60 [0.01 1 2] ------- [2:1 1:0 32 1] [12 0] 0 2
s 153.508081553 _1_ AGT  --- 89 tcp 1500 [0.00 0 0] ------- [1:0 2:1 32 0] [25 0] 0 2
s 153.508081553 _1_ AGT  --- 90 tcp 1500 [0.00 0 0] ------- [1:0 2:1 32 0] [26 0] 0 2
s 153.535055401 _1_ MAC  --- 0 RTS 10 [0.07 2 1] 
s 153.546055977 _2_ MAC  --- 0 CTS 10 [0.06 1 2] 
s 153.557056553 _1_ MAC  --- 72 tcp 1520 [0.01 2 1] ------- [1:0 2:1 32 2] [15 0] 0 2
s 153.600057129 _2_ MAC  --- 0 ACK 10 [0.00 1 2] 
r 153.600057129 _2_ MAC  --- 72 tcp 1520 [0.01 2 1] ------- [1:0 2:1 32 2] [15 0] 0 2
r 153.600082129 _2_ AGT  --- 72 tcp 1520 [0.01 2 1] ------- [1:0 2:1 32 2] [15 0] 0 2
s 153.600082129 _2_ AGT  --- 91 ack 40 [0.00 0 0] ------- [2:1 1:0 32 0] [15 0] 0 2
s 153.660055977 _2_ MAC  --- 0 RTS 10 [0.07 1 2] 
s 153.671056553 _1_ MAC  --- 0 CTS 10 [0.06 2 1] 
s 153.682057129 _2_ MAC  --- 87 ack 60 [0.01 1 2] ------- [2:1 1:0 32 1] [13 0] 0 2
s 153.725057705 _1_ MAC  --- 0 ACK 10 [0.00 2 1] 
r 153.725057705 _1_ MAC  --- 87 ack 60 [0.01 1 2] ------- [2:1 1:0 32 1] [13 0] 0 2
r 153.725082705 _1_ AGT  --- 87 ack 60 [0.01 1 2] ------- [2:1 1:0 32 1] [13 0] 0 2
s 153.725082705 _1_ AGT  --- 92 tcp 1500 [0.00 0 0] ------- [1:0 2:1 32 0] [27 0] 0 2
s 153.725082705 _1_ AGT  --- 93 tcp 1500 [0.00 0 0] ------- [1:0 2:1 32 0] [28 0] 0 2
s 153.782056553 _1_ MAC  --- 0 RTS 10 [0.07 2 1] 
s 153.793057129 _2_ MAC  --- 0 CTS 10 [0.06 1 2] 
s 153.804057705 _1_ MAC  --- 73 tcp 1520 [0.01 2 1] ------- [1:0 2:1 32 2] [16 0] 0 2
s 153.847058280 _2_ MAC  --- 0 ACK 10 [0.00 1 2] 
r 153.847058280 _2_ MAC  --- 73 tcp 1520 [0.01 2 1] ------- [1:0 2:1 32 2] [16 0] 0 2
r 153.847083280 _2_ AGT  --- 73 tcp 1520 [0.01 2 1] ------- [1:0 2:1 32 2] [16 0] 0 2
s 153.847083280 _2_ AGT  --- 94 ack 40 [0.00 0 0] ------- [2:1 1:0 32 0] [16 0] 0 2
s 153.884058856 _1_ MAC  --- 0 RTS 10 [0.07 2 1] 
s 153.895059432 _2_ MAC  --- 0 CTS 10 [0.06 1 2] 
s 153.906060008 _1_ MAC  --- 75 tcp 1520 [0.01 2 1] ------- [1:0 2:1 32 2] [17 0] 0 2
s 153.949060583 _2_ MAC  --- 0 ACK 10 [0.00 1 2] 
r 153.949060583 _2_ MAC  --- 75 tcp 1520 [0.01 2 1] ------- [1:0 2:1 32 2] [17 0] 0 2