V -t * -v 1.0a5 -a 0
A -t * -n 1 -p 0 -o 0xffffffff -c 31 -a 1
A -t * -h 1 -m 2147483647 -s 0
c -t * -i 1 -n Blue
c -t * -i 2 -n Red
n -t * -a 0 -s 0 -S UP -v circle -c black -i black
n -t * -a 1 -s 1 -S UP -v circle -c black -i black
n -t * -a 2 -s 2 -S UP -v circle -c black -i black
n -t * -a 3 -s 3 -S UP -v circle -c black -i black
l -t * -s 0 -d 2 -S UP -r 1000000 -D 0.01 -c black
l -t * -s 1 -d 2 -S UP -r 1000000 -D 0.01 -c black
l -t * -s 3 -d 2 -S UP -r 10000000 -D 0.01 -c black
+ -t 0.5 -s 0 -d 2 -p cbr -e 900 -c 1 -i 0 -a 1 -x {0.0 3.0 0 ------- null}
- -t 0.5 -s 0 -d 2 -p cbr -e 900 -c 1 -i 0 -a 1 -x {0.0 3.0 0 ------- null}
h -t 0.5 -s 0 -d 2 -p cbr -e 900 -c 1 -i 0 -a 1 -x {0.0 3.0 -1 ------- null}
+ -t 0.505 -s 0 -d 2 -p cbr -e 900 -c 1 -i 1 -a 1 -x {0.0 3.0 1 ------- null}
- -t 0.5072 -s 0 -d 2 -p cbr -e 900 -c 1 -i 1 -a 1 -x {0.0 3.0 1 ------- null}
h -t 0.5072 -s 0 -d 2 -p cbr -e 900 -c 1 -i 1 -a 1 -x {0.0 3.0 -1 ------- null}
+ -t 0.51 -s 0 -d 2 -p cbr -e 900 -c 1 -i 2 -a 1 -x {0.0 3.0 2 ------- null}
- -t 0.5144 -s 0 -d 2 -p cbr -e 900 -c 1 -i 2 -a 1 -x {0.0 3.0 2 ------- null}
h -t 0.5144 -s 0 -d 2 -p cbr -e 900 -c 1 -i 2 -a 1 -x {0.0 3.0 -1 ------- null}
+ -t 0.515 -s 0 -d 2 -p cbr -e 900 -c 1 -i 3 -a 1 -x {0.0 3.0 3 ------- null}
r -t 0.5172 -s 0 -d 2 -p cbr -e 900 -c 1 -i 0 -a 1 -x {0.0 3.0 0 ------- null}
+ -t 0.5172 -s 2 -d 3 -p cbr -e 900 -c 1 -i 0 -a 1 -x {0.0 3.0 0 ------- null}
- -t 0.5172 -s 2 -d 3 -p cbr -e 900 -c 1 -i 0 -a 1 -x {0.0 3.0 0 ------- null}
h -t 0.5172 -s 2 -d 3 -p cbr -e 900 -c 1 -i 0 -a 1 -x {0.0 3.0 -1 ------- null}
+ -t 0.52 -s 0 -d 2 -p cbr -e 900 -c 1 -i 4 -a 1 -x {0.0 3.0 4 ------- null}
- -t 0.5216 -s 0 -d 2 -p cbr -e 900 -c 1 -i 3 -a 1 -x {0.0 3.0 3 ------- null}
h -t 0.5216 -s 0 -d 2 -p cbr -e 900 -c 1 -i 3 -a 1 -x {0.0 3.0 -1 ------- null}
r -t 0.5244 -s 0 -d 2 -p cbr -e 900 -c 1 -i 1 -a 1 -x {0.0 3.0 1 ------- null}
+ -t 0.5244 -s 2 -d 3 -p cbr -e 900 -c 1 -i 1 -a 1 -x {0.0 3.0 1 ------- null}
- -t 0.5244 -s 2 -d 3 -p cbr -e 900 -c 1 -i 1 -a 1 -x {0.0 3.0 1 ------- null}
h -t 0.5244 -s 2 -d 3 -p cbr -e 900 -c 1 -i 1 -a 1 -x {0.0 3.0 -1 ------- null}
+ -t 0.525 -s 0 -d 2 -p cbr -e 900 -c 1 -i 5 -a 1 -x {0.0 3.0 5 ------- null}
r -t 0.52792 -s 2 -d 3 -p cbr -e 900 -c 1 -i 0 -a 1 -x {0.0 3.0 0 ------- null}
- -t 0.5288 -s 0 -d 2 -p cbr -e 900 -c 1 -i 4 -a 1 -x {0.0 3.0 4 ------- null}
h -t 0.5288 -s 0 -d 2 -p cbr -e 900 -c 1 -i 4 -a 1 -x {0.0 3.0 -1 ------- null}
+ -t 0.53 -s 0 -d 2 -p cbr -e 900 -c 1 -i 6 -a 1 -x {0.0 3.0 6 ------- null}
r -t 0.5316 -s 0 -d 2 -p cbr -e 900 -c 1 -i 2 -a 1 -x {0.0 3.0 2 ------- null}
+ -t 0.5316 -s 2 -d 3 -p cbr -e 900 -c 1 -i 2 -a 1 -x {0.0 3.0 2 ------- null}
- -t 0.5316 -s 2 -d 3 -p cbr -e 900 -c 1 -i 2 -a 1 -x {0.0 3.0 2 ------- null}
h -t 0.5316 -s 2 -d 3 -p cbr -e 900 -c 1 -i 2 -a 1 -x {0.0 3.0 -1 ------- null}
+ -t 0.535 -s 0 -d 2 -p cbr -e 900 -c 1 -i 7 -a 1 -x {0.0 3.0 7 ------- null}
r -t 0.53512 -s 2 -d 3 -p cbr -e 900 -c 1 -i 1 -a 1 -x {0.0 3.0 1 ------- null}
- -t 0.536 -s 0 -d 2 -p cbr -e 900 -c 1 -i 5 -a 1 -x {0.0 3.0 5 ------- null}
h -t 0.536 -s 0 -d 2 -p cbr -e 900 -c 1 -i 5 -a 1 -x {0.0 3.0 -1 ------- null}
r -t 0.5388 -s 0 -d 2 -p cbr -e 900 -c 1 -i 3 -a 1 -x {0.0 3.0 3 ------- null}
+ -t 0.5388 -s 2 -d 3 -p cbr -e 900 -c 1 -i 3 -a 1 -x {0.0 3.0 3 ------- null}
- -t 0.5388 -s 2 -d 3 -p cbr -e 900 -c 1 -i 3 -a 1 -x {0.0 3.0 3 ------- null}
h -t 0.5388 -s 2 -d 3 -p cbr -e 900 -c 1 -i 3 -a 1 -x {0.0 3.0 -1 ------- null}
+ -t 0.54 -s 0 -d 2 -p cbr -e 900 -c 1 -i 8 -a 1 -x {0.0 3.0 8 ------- null}
r -t 0.54232 -s 2 -d 3 -p cbr -e 900 -c 1 -i 2 -a 1 -x {0.0 3.0 2 ------- null}
- -t 0.5432 -s 0 -d 2 -p cbr -e 900 -c 1 -i 6 -a 1 -x {0.0 3.0 6 ------- null}
h -t 0.5432 -s 0 -d 2 -p cbr -e 900 -c 1 -i 6 -a 1 -x {0.0 3.0 -1 ------- null}
+ -t 0.545 -s 0 -d 2 -p cbr -e 900 -c 1 -i 9 -a 1 -x {0.0 3.0 9 ------- null}
r -t 0.546 -s 0 -d 2 -p cbr -e 900 -c 1 -i 4 -a 1 -x {0.0 3.0 4 ------- null}
+ -t 0.546 -s 2 -d 3 -p cbr -e 900 -c 1 -i 4 -a 1 -x {0.0 3.0 4 ------- null}
- -t 0.546 -s 2 -d 3 -p cbr -e 900 -c 1 -i 4 -a 1 -x {0.0 3.0 4 ------- null}
h -t 0.546 -s 2 -d 3 -p cbr -e 900 -c 1 -i 4 -a 1 -x {0.0 3.0 -1 ------- null}
r -t 0.54952 -s 2 -d 3 -p cbr -e 900 -c 1 -i 3 -a 1 -x {0.0 3.0 3 ------- null}
+ -t 0.55 -s 0 -d 2 -p cbr -e 900 -c 1 -i 10 -a 1 -x {0.0 3.0 10 ------- null}
- -t 0.5504 -s 0 -d 2 -p cbr -e 900 -c 1 -i 7 -a 1 -x {0.0 3.0 7 ------- null}
h -t 0.5504 -s 0 -d 2 -p cbr -e 900 -c 1 -i 7 -a 1 -x {0.0 3.0 -1 ------- null}
r -t 0.5532 -s 0 -d 2 -p cbr -e 900 -c 1 -i 5 -a 1 -x {0.0 3.0 5 ------- null}
+ -t 0.5532 -s 2 -d 3 -p cbr -e 900 -c 1 -i 5 -a 1 -x {0.0 3.0 5 ------- null}
- -t 0.5532 -s 2 -d 3 -p cbr -e 900 -c 1 -i 5 -a 1 -x {0.0 3.0 5 ------- null}
h -t 0.5532 -s 2 -d 3 -p cbr -e 900 -c 1 -i 5 -a 1 -x {0.0 3.0 -1 ------- null}
+ -t 0.555 -s 0 -d 2 -p cbr -e 900 -c 1 -i 11 -a 1 -x {0.0 3.0 11 ------- null}
r -t 0.55672 -s 2 -d 3 -p cbr -e 900 -c 1 -i 4 -a 1 -x {0.0 3.0 4 ------- null}
- -t 0.5576 -s 0 -d 2 -p cbr -e 900 -c 1 -i 8 -a 1 -x {0.0 3.0 8 ------- null}
h -t 0.5576 -s 0 -d 2 -p cbr -e 900 -c 1 -i 8 -a 1 -x {0.0 3.0 -1 ------- null}
+ -t 0.56 -s 0 -d 2 -p cbr -e 900 -c 1 -i 12 -a 1 -x {0.0 3.0 12 ------- null}
r -t 0.5604 -s 0 -d 2 -p cbr -e 900 -c 1 -i 6 -a 1 -x {0.0 3.0 6 ------- null}
+ -t 0.5604 -s 2 -d 3 -p cbr -e 900 -c 1 -i 6 -a 1 -x {0.0 3.0 6 ------- null}
- -t 0.5604 -s 2 -d 3 -p cbr -e 900 -c 1 -i 6 -a 1 -x {0.0 3.0 6 ------- null}
h -t 0.5604 -s 2 -d 3 -p cbr -e 900 -c 1 -i 6 -a 1 -x {0.0 3.0 -1 ------- null}
r -t 0.56392 -s 2 -d 3 -p cbr -e 900 -c 1 -i 5 -a 1 -x {0.0 3.0 5 ------- null}
- -t 0.5648 -s 0 -d 2 -p cbr -e 900 -c 1 -i 9 -a 1 -x {0.0 3.0 9 ------- null}
h -t 0.5648 -s 0 -d 2 -p cbr -e 900 -c 1 -i 9 -a 1 -x {0.0 3.0 -1 ------- null}
+ -t 0.565 -s 0 -d 2 -p cbr -e 900 -c 1 -i 13 -a 1 -x {0.0 3.0 13 ------- null}
r -t 0.5676 -s 0 -d 2 -p cbr -e 900 -c 1 -i 7 -a 1 -x {0.0 3.0 7 ------- null}
+ -t 0.5676 -s 2 -d 3 -p cbr -e 900 -c 1 -i 7 -a 1 -x {0.0 3.0 7 ------- null}
- -t 0.5676 -s 2 -d 3 -p cbr -e 900 -c 1 -i 7 -a 1 -x {0.0 3.0 7 ------- null}
h -t 0.5676 -s 2 -d 3 -p cbr -e 900 -c 1 -i 7 -a 1 -x {0.0 3.0 -1 ------- null}
+ -t 0.57 -s 0 -d 2 -p cbr -e 900 -c 1 -i 14 -a 1 -x {0.0 3.0 14 ------- null}
r -t 0.57112 -s 2 -d 3 -p cbr -e 900 -c 1 -i 6 -a 1 -x {0.0 3.0 6 ------- null}
- -t 0.572 -s 0 -d 2 -p cbr -e 900 -c 1 -i 10 -a 1 -x {0.0 3.0 10 ------- null}
h -t 0.572 -s 0 -d 2 -p cbr -e 900 -c 1 -i 10 -a 1 -x {0.0 3.0 -1 ------- null}
r -t 0.5748 -s 0 -d 2 -p cbr -e 900 -c 1 -i 8 -a 1 -x {0.0 3.0 8 ------- null}
+ -t 0.5748 -s 2 -d 3 -p cbr -e 900 -c 1 -i 8 -a 1 -x {0.0 3.0 8 ------- null}
- -t 0.5748 -s 2 -d 3 -p cbr -e 900 -c 1 -i 8 -a 1 -x {0.0 3.0 8 ------- null}
h -t 0.5748 -s 2 -d 3 -p cbr -e 900 -c 1 -i 8 -a 1 -x {0.0 3.0 -1 ------- null}
+ -t 0.575 -s 0 -d 2 -p cbr -e 900 -c 1 -i 15 -a 1 -x {0.0 3.0 15 ------- null}
r -t 0.57832 -s 2 -d 3 -p cbr -e 900 -c 1 -i 7 -a 1 -x {0.0 3.0 7 ------- null}
- -t 0.5792 -s 0 -d 2 -p cbr -e 900 -c 1 -i 11 -a 1 -x {0.0 3.0 11 ------- null}
h -t 0.5792 -s 0 -d 2 -p cbr -e 900 -c 1 -i 11 -a 1 -x {0.0 3.0 -1 ------- null}
+ -t 0.58 -s 0 -d 2 -p cbr -e 900 -c 1 -i 16 -a 1 -x {0.0 3.0 16 ------- null}
r -t 0.582 -s 0 -d 2 -p cbr -e 900 -c 1 -i 9 -a 1 -x {0.0 3.0 9 ------- null}
+ -t 0.582 -s 2 -d 3 -p cbr -e 900 -c 1 -i 9 -a 1 -x {0.0 3.0 9 ------- null}
- -t 0.582 -s 2 -d 3 -p cbr -e 900 -c 1 -i 9 -a 1 -x {0.0 3.0 9 ------- null}
h -t 0.582 -s 2 -d 3 -p cbr -e 900 -c 1 -i 9 -a 1 -x {0.0 3.0 -1 ------- null}
+ -t 0.585 -s 0 -d 2 -p cbr -e 900 -c 1 -i 17 -a 1 -x {0.0 3.0 17 ------- null}
r -t 0.58552 -s 2 -d 3 -p cbr -e 900 -c 1 -i 8 -a 1 -x {0.0 3.0 8 ------- null}
- -t 0.5864 -s 0 -d 2 -p cbr -e 900 -c 1 -i 12 -a 1 -x {0.0 3.0 12 ------- null}
h -t 0.5864 -s 0 -d 2 -p cbr -e 900 -c 1 -i 12 -a 1 -x {0.0 3.0 -1 ------- null}
r -t 0.5892 -s 0 -d 2 -p cbr -e 900 -c 1 -i 10 -a 1 -x {0.0 3.0 10 ------- null}
+ -t 0.5892 -s 2 -d 3 -p cbr -e 900 -c 1 -i 10 -a 1 -x {0.0 3.0 10 ------- null}
- -t 0.5892 -s 2 -d 3 -p cbr -e 900 -c 1 -i 10 -a 1 -x {0.0 3.0 10 ------- null}
h -t 0.5892 -s 2 -d 3 -p cbr -e 900 -c 1 -i 10 -a 1 -x {0.0 3.0 -1 ------- null}
+ -t 0.59 -s 0 -d 2 -p cbr -e 900 -c 1 -i 18 -a 1 -x {0.0 3.0 18 ------- null}
r -t 0.59272 -s 2 -d 3 -p cbr -e 900 -c 1 -i 9 -a 1 -x {0.0 3.0 9 ------- null}
- -t 0.5936 -s 0 -d 2 -p cbr -e 900 -c 1 -i 13 -a 1 -x {0.0 3.0 13 ------- null}
h -t 0.5936 -s 0 -d 2 -p cbr -e 900 -c 1 -i 13 -a 1 -x {0.0 3.0 -1 ------- null}
+ -t 0.595 -s 0 -d 2 -p cbr -e 900 -c 1 -i 19 -a 1 -x {0.0 3.0 19 ------- null}
r -t 0.5964 -s 0 -d 2 -p cbr -e 900 -c 1 -i 11 -a 1 -x {0.0 3.0 11 ------- null}
+ -t 0.5964 -s 2 -d 3 -p cbr -e 900 -c 1 -i 11 -a 1 -x {0.0 3.0 11 ------- null}
- -t 0.5964 -s 2 -d 3 -p cbr -e 900 -c 1 -i 11 -a 1 -x {0.0 3.0 11 ------- null}
h -t 0.5964 -s 2 -d 3 -p cbr -e 900 -c 1 -i 11 -a 1 -x {0.0 3.0 -1 ------- null}
r -t 0.59992 -s 2 -d 3 -p cbr -e 900 -c 1 -i 10 -a 1 -x {0.0 3.0 10 ------- null}
+ -t 0.6 -s 0 -d 2 -p cbr -e 900 -c 1 -i 20 -a 1 -x {0.0 3.0 20 ------- null}
- -t 0.6008 -s 0 -d 2 -p cbr -e 900 -c 1 -i 14 -a 1 -x {0.0 3.0 14 ------- null}
h -t 0.6008 -s 0 -d 2 -p cbr -e 900 -c 1 -i 14 -a 1 -x {0.0 3.0 -1 ------- null}
r -t 0.6036 -s 0 -d 2 -p cbr -e 900 -c 1 -i 12 -a 1 -x {0.0 3.0 12 ------- null}
+ -t 0.6036 -s 2 -d 3 -p cbr -e 900 -c 1 -i 12 -a 1 -x {0.0 3.0 12 ------- null}
- -t 0.6036 -s 2 -d 3 -p cbr -e 900 -c 1 -i 12 -a 1 -x {0.0 3.0 12 ------- null}
h -t 0.6036 -s 2 -d 3 -p cbr -e 900 -c 1 -i 12 -a 1 -x {0.0 3.0 -1 ------- null}
+ -t 0.605 -s 0 -d 2 -p cbr -e 900 -c 1 -i 21 -a 1 -x {0.0 3.0 21 ------- null}
r -t 0.60712 -s 2 -d 3 -p cbr -e 900 -c 1 -i 11 -a 1 -x {0.0 3.0 11 ------- null}
- -t 0.608 -s 0 -d 2 -p cbr -e 900 -c 1 -i 15 -a 1 -x {0.0 3.0 15 ------- null}
h -t 0.608 -s 0 -d 2 -p cbr -e 900 -c 1 -i 15 -a 1 -x {0.0 3.0 -1 ------- null}
+ -t 0.61 -s 0 -d 2 -p cbr -e 900 -c 1 -i 22 -a 1 -x {0.0 3.0 22 ------- null}
r -t 0.6108 -s 0 -d 2 -p cbr -e 900 -c 1 -i 13 -a 1 -x {0.0 3.0 13 ------- null}
+ -t 0.6108 -s 2 -d 3 -p cbr -e 900 -c 1 -i 13 -a 1 -x {0.0 3.0 13 ------- null}
- -t 0.6108 -s 2 -d 3 -p cbr -e 900 -c 1 -i 13 -a 1 -x {0.0 3.0 13 ------- null}
h -t 0.6108 -s 2 -d 3 -p cbr -e 900 -c 1 -i 13 -a 1 -x {0.0 3.0 -1 ------- null}
r -t 0.61432 -s 2 -d 3 -p cbr -e 900 -c 1 -i 12 -a 1 -x {0.0 3.0 12 ------- null}
+ -t 0.615 -s 0 -d 2 -p cbr -e 900 -c 1 -i 23 -a 1 -x {0.0 3.0 23 ------- null}
- -t 0.6152 -s 0 -d 2 -p cbr -e 900 -c 1 -i 16 -a 1 -x {0.0 3.0 16 ------- null}
h -t 0.6152 -s 0 -d 2 -p cbr -e 900 -c 1 -i 16 -a 1 -x {0.0 3.0 -1 ------- null}
r -t 0.618 -s 0 -d 2 -p cbr -e 900 -c 1 -i 14 -a 1 -x {0.0 3.0 14 ------- null}
+ -t 0.618 -s 2 -d 3 -p cbr -e 900 -c 1 -i 14 -a 1 -x {0.0 3.0 14 ------- null}
- -t 0.618 -s 2 -d 3 -p cbr -e 900 -c 1 -i 14 -a 1 -x {0.0 3.0 14 ------- null}
h -t 0.618 -s 2 -d 3 -p cbr -e 900 -c 1 -i 14 -a 1 -x {0.0 3.0 -1 ------- null}
+ -t 0.62 -s 0 -d 2 -p cbr -e 900 -c 1 -i 24 -a 1 -x {0.0 3.0 24 ------- null}
r -t 0.62152 -s 2 -d 3 -p cbr -e 900 -c 1 -i 13 -a 1 -x {0.0 3.0 13 ------- null}
- -t 0.6224 -s 0 -d 2 -p cbr -e 900 -c 1 -i 17 -a 1 -x {0.0 3.0 17 ------- null}
h -t 0.6224 -s 0 -d 2 -p cbr -e 900 -c 1 -i 17 -a 1 -x {0.0 3.0 -1 ------- null}
+ -t 0.625 -s 0 -d 2 -p cbr -e 900 -c 1 -i 25 -a 1 -x {0.0 3.0 25 ------- null}
r -t 0.6252 -s 0 -d 2 -p cbr -e 900 -c 1 -i 15 -a 1 -x {0.0 3.0 15 ------- null}
+ -t 0.6252 -s 2 -d 3 -p cbr -e 900 -c 1 -i 15 -a 1 -x {0.0 3.0 15 ------- null}
- -t 0.6252 -s 2 -d 3 -p cbr -e 900 -c 1 -i 15 -a 1 -x {0.0 3.0 15 ------- null}
h -t 0.6252 -s 2 -d 3 -p cbr -e 900 -c 1 -i 15 -a 1 -x {0.0 3.0 -1 ------- null}
r -t 0.62872 -s 2 -d 3 -p cbr -e 900 -c 1 -i 14 -a 1 -x {0.0 3.0 14 ------- null}
- -t 0.6296 -s 0 -d 2 -p cbr -e 900 -c 1 -i 18 -a 1 -x {0.0 3.0 18 ------- null}
h -t 0.6296 -s 0 -d 2 -p cbr -e 900 -c 1 -i 18 -a 1 -x {0.0 3.0 -1 ------- null}
+ -t 0.63 -s 0 -d 2 -p cbr -e 900 -c 1 -i 26 -a 1 -x {0.0 3.0 26 ------- null}
r -t 0.6324 -s 0 -d 2 -p cbr -e 900 -c 1 -i 16 -a 1 -x {0.0 3.0 16 ------- null}
+ -t 0.6324 -s 2 -d 3 -p cbr -e 900 -c 1 -i 16 -a 1 -x {0.0 3.0 16 ------- null}
- -t 0.6324 -s 2 -d 3 -p cbr -e 900 -c 1 -i 16 -a 1 -x {0.0 3.0 16 ------- null}
h -t 0.6324 -s 2 -d 3 -p cbr -e 900 -c 1 -i 16 -a 1 -x {0.0 3.0 -1 ------- null}
+ -t 0.635 -s 0 -d 2 -p cbr -e 900 -c 1 -i 27 -a 1 -x {0.0 3.0 27 ------- null}
r -t 0.63592 -s 2 -d 3 -p cbr -e 900 -c 1 -i 15 -a 1 -x {0.0 3.0 15 ------- null}
- -t 0.6368 -s 0 -d 2 -p cbr -e 900 -c 1 -i 19 -a 1 -x {0.0 3.0 19 ------- null}
h -t 0.6368 -s 0 -d 2 -p cbr -e 900 -c 1 -i 19 -a 1 -x {0.0 3.0 -1 ------- null}
r -t 0.6396 -s 0 -d 2 -p cbr -e 900 -c 1 -i 17 -a 1 -x {0.0 3.0 17 ------- null}
+ -t 0.6396 -s 2 -d 3 -p cbr -e 900 -c 1 -i 17 -a 1 -x {0.0 3.0 17 ------- null}
- -t 0.6396 -s 2 -d 3 -p cbr -e 900 -c 1 -i 17 -a 1 -x {0.0 3.0 17 ------- null}
h -t 0.6396 -s 2 -d 3 -p cbr -e 900 -c 1 -i 17 -a 1 -x {0.0 3.0 -1 ------- null}
+ -t 0.64 -s 0 -d 2 -p cbr -e 900 -c 1 -i 28 -a 1 -x {0.0 3.0 28 ------- null}
r -t 0.64312 -s 2 -d 3 -p cbr -e 900 -c 1 -i 16 -a 1 -x {0.0 3.0 16 ------- null}
- -t 0.644 -s 0 -d 2 -p cbr -e 900 -c 1 -i 20 -a 1 -x {0.0 3.0 20 ------- null}
h -t 0.644 -s 0 -d 2 -p cbr -e 900 -c 1 -i 20 -a 1 -x {0.0 3.0 -1 ------- null}
+ -t 0.645 -s 0 -d 2 -p cbr -e 900 -c 1 -i 29 -a 1 -x {0.0 3.0 29 ------- null}
r -t 0.6468 -s 0 -d 2 -p cbr -e 900 -c 1 -i 18 -a 1 -x {0.0 3.0 18 ------- null}
+ -t 0.6468 -s 2 -d 3 -p cbr -e 900 -c 1 -i 18 -a 1 -x {0.0 3.0 18 ------- null}
- -t 0.6468 -s 2 -d 3 -p cbr -e 900 -c 1 -i 18 -a 1 -x {0.0 3.0 18 ------- null}
h -t 0.6468 -s 2 -d 3 -p cbr -e 900 -c 1 -i 18 -a 1 -x {0.0 3.0 -1 ------- null}
+ -t 0.65 -s 0 -d 2 -p cbr -e 900 -c 1 -i 30 -a 1 -x {0.0 3.0 30 ------- null}
r -t 0.65032 -s 2 -d 3 -p cbr -e 900 -c 1 -i 17 -a 1 -x {0.0 3.0 17 ------- null}
- -t 0.6512 -s 0 -d 2 -p cbr -e 900 -c 1 -i 21 -a 1 -x {0.0 3.0 21 ------- null}
h -t 0.6512 -s 0 -d 2 -p cbr -e 900 -c 1 -i 21 -a 1 -x {0.0 3.0 -1 ------- null}
r -t 0.654 -s 0 -d 2 -p cbr -e 900 -c 1 -i 19 -a 1 -x {0.0 3.0 19 ------- null}
+ -t 0.654 -s 2 -d 3 -p cbr -e 900 -c 1 -i 19 -a 1 -x {0.0 3.0 19 ------- null}
- -t 0.654 -s 2 -d 3 -p cbr -e 900 -c 1 -i 19 -a 1 -x {0.0 3.0 19 ------- null}
h -t 0.654 -s 2 -d 3 -p cbr -e 900 -c 1 -i 19 -a 1 -x {0.0 3.0 -1 ------- null}
+ -t 0.655 -s 0 -d 2 -p cbr -e 900 -c 1 -i 31 -a 1 -x {0.0 3.0 31 ------- null}
r -t 0.65752 -s 2 -d 3 -p cbr -e 900 -c 1 -i 18 -a 1 -x {0.0 3.0 18 ------- null}
- -t 0.6584 -s 0 -d 2 -p cbr -e 900 -c 1 -i 22 -a 1 -x {0.0 3.0 22 ------- null}
h -t 0.6584 -s 0 -d 2 -p cbr -e 900 -c 1 -i 22 -a 1 -x {0.0 3.0 -1 ------- null}
+ -t 0.66 -s 0 -d 2 -p cbr -e 900 -c 1 -i 32 -a 1 -x {0.0 3.0 32 ------- null}
r -t 0.6612 -s 0 -d 2 -p cbr -e 900 -c 1 -i 20 -a 1 -x {0.0 3.0 20 ------- null}
+ -t 0.6612 -s 2 -d 3 -p cbr -e 900 -c 1 -i 20 -a 1 -x {0.0 3.0 20 ------- null}
- -t 0.6612 -s 2 -d 3 -p cbr -e 900 -c 1 -i 20 -a 1 -x {0.0 3.0 20 ------- null}
h -t 0.6612 -s 2 -d 3 -p cbr -e 900 -c 1 -i 20 -a 1 -x {0.0 3.0 -1 ------- null}
r -t 0.66472 -s 2 -d 3 -p cbr -e 900 -c 1 -i 19 -a 1 -x {0.0 3.0 19 ------- null}
+ -t 0.665 -s 0 -d 2 -p cbr -e 900 -c 1 -i 33 -a 1 -x {0.0 3.0 33 ------- null}
- -t 0.6656 -s 0 -d 2 -p cbr -e 900 -c 1 -i 23 -a 1 -x {0.0 3.0 23 ------- null}
h -t 0.6656 -s 0 -d 2 -p cbr -e 900 -c 1 -i 23 -a 1 -x {0.0 3.0 -1 ------- null}
r -t 0.6684 -s 0 -d 2 -p cbr -e 900 -c 1 -i 21 -a 1 -x {0.0 3.0 21 ------- null}
+ -t 0.6684 -s 2 -d 3 -p cbr -e 900 -c 1 -i 21 -a 1 -x {0.0 3.0 21 ------- null}
- -t 0.6684 -s 2 -d 3 -p cbr -e 900 -c 1 -i 21 -a 1 -x {0.0 3.0 21 ------- null}
h -t 0.6684 -s 2 -d 3 -p cbr -e 900 -c 1 -i 21 -a 1 -x {0.0 3.0 -1 ------- null}
+ -t 0.67 -s 0 -d 2 -p cbr -e 900 -c 1 -i 34 -a 1 -x {0.0 3.0 34 ------- null}
r -t 0.67192 -s 2 -d 3 -p cbr -e 900 -c 1 -i 20 -a 1 -x {0.0 3.0 20 ------- null}
- -t 0.6728 -s 0 -d 2 -p cbr -e 900 -c 1 -i 24 -a 1 -x {0.0 3.0 24 ------- null}
h -t 0.6728 -s 0 -d 2 -p cbr -e 900 -c 1 -i 24 -a 1 -x {0.0 3.0 -1 ------- null}
+ -t 0.675 -s 0 -d 2 -p cbr -e 900 -c 1 -i 35 -a 1 -x {0.0 3.0 35 ------- null}
r -t 0.6756 -s 0 -d 2 -p cbr -e 900 -c 1 -i 22 -a 1 -x {0.0 3.0 22 ------- null}
+ -t 0.6756 -s 2 -d 3 -p cbr -e 900 -c 1 -i 22 -a 1 -x {0.0 3.0 22 ------- null}
- -t 0.6756 -s 2 -d 3 -p cbr -e 900 -c 1 -i 22 -a 1 -x {0.0 3.0 22 ------- null}
h -t 0.6756 -s 2 -d 3 -p cbr -e 900 -c 1 -i 22 -a 1 -x {0.0 3.0 -1 ------- null}
r -t 0.67912 -s 2 -d 3 -p cbr -e 900 -c 1 -i 21 -a 1 -x {0.0 3.0 21 ------- null}
- -t 0.68 -s 0 -d 2 -p cbr -e 900 -c 1 -i 25 -a 1 -x {0.0 3.0 25 ------- null}
h -t 0.68 -s 0 -d 2 -p cbr -e 900 -c 1 -i 25 -a 1 -x {0.0 3.0 -1 ------- null}
+ -t 0.68 -s 0 -d 2 -p cbr -e 900 -c 1 -i 36 -a 1 -x {0.0 3.0 36 ------- null}
r -t 0.6828 -s 0 -d 2 -p cbr -e 900 -c 1 -i 23 -a 1 -x {0.0 3.0 23 ------- null}
+ -t 0.6828 -s 2 -d 3 -p cbr -e 900 -c 1 -i 23 -a 1 -x {0.0 3.0 23 ------- null}
- -t 0.6828 -s 2 -d 3 -p cbr -e 900 -c 1 -i 23 -a 1 -x {0.0 3.0 23 ------- null}
h -t 0.6828 -s 2 -d 3 -p cbr -e 900 -c 1 -i 23 -a 1 -x {0.0 3.0 -1 ------- null}
+ -t 0.685 -s 0 -d 2 -p cbr -e 900 -c 1 -i 37 -a 1 -x {0.0 3.0 37 ------- null}
r -t 0.68632 -s 2 -d 3 -p cbr -e 900 -c 1 -i 22 -a 1 -x {0.0 3.0 22 ------- null}
- -t 0.6872 -s 0 -d 2 -p cbr -e 900 -c 1 -i 26 -a 1 -x {0.0 3.0 26 ------- null}
h -t 0.6872 -s 0 -d 2 -p cbr -e 900 -c 1 -i 26 -a 1 -x {0.0 3.0 -1 ------- null}
r -t 0.69 -s 0 -d 2 -p cbr -e 900 -c 1 -i 24 -a 1 -x {0.0 3.0 24 ------- null}
+ -t 0.69 -s 2 -d 3 -p cbr -e 900 -c 1 -i 24 -a 1 -x {0.0 3.0 24 ------- null}
- -t 0.69 -s 2 -d 3 -p cbr -e 900 -c 1 -i 24 -a 1 -x {0.0 3.0 24 ------- null}
h -t 0.69 -s 2 -d 3 -p cbr -e 900 -c 1 -i 24 -a 1 -x {0.0 3.0 -1 ------- null}
+ -t 0.69 -s 0 -d 2 -p cbr -e 900 -c 1 -i 38 -a 1 -x {0.0 3.0 38 ------- null}
r -t 0.69352 -s 2 -d 3 -p cbr -e 900 -c 1 -i 23 -a 1 -x {0.0 3.0 23 ------- null}
- -t 0.6944 -s 0 -d 2 -p cbr -e 900 -c 1 -i 27 -a 1 -x {0.0 3.0 27 ------- null}
h -t 0.6944 -s 0 -d 2 -p cbr -e 900 -c 1 -i 27 -a 1 -x {0.0 3.0 -1 ------- null}
+ -t 0.695 -s 0 -d 2 -p cbr -e 900 -c 1 -i 39 -a 1 -x {0.0 3.0 39 ------- null}
r -t 0.6972 -s 0 -d 2 -p cbr -e 900 -c 1 -i 25 -a 1 -x {0.0 3.0 25 ------- null}
+ -t 0.6972 -s 2 -d 3 -p cbr -e 900 -c 1 -i 25 -a 1 -x {0.0 3.0 25 ------- null}
- -t 0.6972 -s 2 -d 3 -p cbr -e 900 -c 1 -i 25 -a 1 -x {0.0 3.0 25 ------- null}
h -t 0.6972 -s 2 -d 3 -p cbr -e 900 -c 1 -i 25 -a 1 -x {0.0 3.0 -1 ------- null}
+ -t 0.7 -s 0 -d 2 -p cbr -e 900 -c 1 -i 40 -a 1 -x {0.0 3.0 40 ------- null}
r -t 0.70072 -s 2 -d 3 -p cbr -e 900 -c 1 -i 24 -a 1 -x {0.0 3.0 24 ------- null}
- -t 0.7016 -s 0 -d 2 -p cbr -e 900 -c 1 -i 28 -a 1 -x {0.0 3.0 28 ------- null}
h -t 0.7016 -s 0 -d 2 -p cbr -e 900 -c 1 -i 28 -a 1 -x {0.0 3.0 -1 ------- null}
r -t 0.7044 -s 0 -d 2 -p cbr -e 900 -c 1 -i 26 -a 1 -x {0.0 3.0 26 ------- null}
+ -t 0.7044 -s 2 -d 3 -p cbr -e 900 -c 1 -i 26 -a 1 -x {0.0 3.0 26 ------- null}
- -t 0.7044 -s 2 -d 3 -p cbr -e 900 -c 1 -i 26 -a 1 -x {0.0 3.0 26 ------- null}
h -t 0.7044 -s 2 -d 3 -p cbr -e 900 -c 1 -i 26 -a 1 -x {0.0 3.0 -1 ------- null}
+ -t 0.705 -s 0 -d 2 -p cbr -e 900 -c 1 -i 41 -a 1 -x {0.0 3.0 41 ------- null}
r -t 0.70792 -s 2 -d 3 -p cbr -e 900 -c 1 -i 25 -a 1 -x {0.0 3.0 25 ------- null}
- -t 0.7088 -s 0 -d 2 -p cbr -e 900 -c 1 -i 29 -a 1 -x {0.0 3.0 29 ------- null}
h -t 0.7088 -s 0 -d 2 -p cbr -e 900 -c 1 -i 29 -a 1 -x {0.0 3.0 -1 ------- null}
+ -t 0.71 -s 0 -d 2 -p cbr -e 900 -c 1 -i 42 -a 1 -x {0.0 3.0 42 ------- null}
r -t 0.7116 -s 0 -d 2 -p cbr -e 900 -c 1 -i 27 -a 1 -x {0.0 3.0 27 ------- null}
+ -t 0.7116 -s 2 -d 3 -p cbr -e 900 -c 1 -i 27 -a 1 -x {0.0 3.0 27 ------- null}
- -t 0.7116 -s 2 -d 3 -p cbr -e 900 -c 1 -i 27 -a 1 -x {0.0 3.0 27 ------- null}
h -t 0.7116 -s 2 -d 3 -p cbr -e 900 -c 1 -i 27 -a 1 -x {0.0 3.0 -1 ------- null}
+ -t 0.715 -s 0 -d 2 -p cbr -e 900 -c 1 -i 43 -a 1 -x {0.0 3.0 43 ------- null}
r -t 0.71512 -s 2 -d 3 -p cbr -e 900 -c 1 -i 26 -a 1 -x {0.0 3.0 26 ------- null}
- -t 0.716 -s 0 -d 2 -p cbr -e 900 -c 1 -i 30 -a 1 -x {0.0 3.0 30 ------- null}
h -t 0.716 -s 0 -d 2 -p cbr -e 900 -c 1 -i 30 -a 1 -x {0.0 3.0 -1 ------- null}
r -t 0.7188 -s 0 -d 2 -p cbr -e 900 -c 1 -i 28 -a 1 -x {0.0 3.0 28 ------- null}
+ -t 0.7188 -s 2 -d 3 -p cbr -e 900 -c 1 -i 28 -a 1 -x {0.0 3.0 28 ------- null}
- -t 0.7188 -s 2 -d 3 -p cbr -e 900 -c 1 -i 28 -a 1 -x {0.0 3.0 28 ------- null}
h -t 0.7188 -s 2 -d 3 -p cbr -e 900 -c 1 -i 28 -a 1 -x {0.0 3.0 -1 ------- null}
+ -t 0.72 -s 0 -d 2 -p cbr -e 900 -c 1 -i 44 -a 1 -x {0.0 3.0 44 ------- null}
r -t 0.72232 -s 2 -d 3 -p cbr -e 900 -c 1 -i 27 -a 1 -x {0.0 3.0 27 ------- null}
- -t 0.7232 -s 0 -d 2 -p cbr -e 900 -c 1 -i 31 -a 1 -x {0.0 3.0 31 ------- null}
h -t 0.7232 -s 0 -d 2 -p cbr -e 900 -c 1 -i 31 -a 1 -x {0.0 3.0 -1 ------- null}
+ -t 0.725 -s 0 -d 2 -p cbr -e 900 -c 1 -i 45 -a 1 -x {0.0 3.0 45 ------- null}
r -t 0.726 -s 0 -d 2 -p cbr -e 900 -c 1 -i 29 -a 1 -x {0.0 3.0 29 ------- null}
+ -t 0.726 -s 2 -d 3 -p cbr -e 900 -c 1 -i 29 -a 1 -x {0.0 3.0 29 ------- null}
- -t 0.726 -s 2 -d 3 -p cbr -e 900 -c 1 -i 29 -a 1 -x {0.0 3.0 29 ------- null}
h -t 0.726 -s 2 -d 3 -p cbr -e 900 -c 1 -i 29 -a 1 -x {0.0 3.0 -1 ------- null}
r -t 0.72952 -s 2 -d 3 -p cbr -e 900 -c 1 -i 28 -a 1 -x {0.0 3.0 28 ------- null}
+ -t 0.73 -s 0 -d 2 -p cbr -e 900 -c 1 -i 46 -a 1 -x {0.0 3.0 46 ------- null}
- -t 0.730399999999999 -s 0 -d 2 -p cbr -e 900 -c 1 -i 32 -a 1 -x {0.0 3.0 32 ------- null}
h -t 0.730399999999999 -s 0 -d 2 -p cbr -e 900 -c 1 -i 32 -a 1 -x {0.0 3.0 -1 ------- null}
r -t 0.7332 -s 0 -d 2 -p cbr -e 900 -c 1 -i 30 -a 1 -x {0.0 3.0 30 ------- null}
+ -t 0.7332 -s 2 -d 3 -p cbr -e 900 -c 1 -i 30 -a 1 -x {0.0 3.0 30 ------- null}
- -t 0.7332 -s 2 -d 3 -p cbr -e 900 -c 1 -i 30 -a 1 -x {0.0 3.0 30 ------- null}
h -t 0.7332 -s 2 -d 3 -p cbr -e 900 -c 1 -i 30 -a 1 -x {0.0 3.0 -1 ------- null}
+ -t 0.735 -s 0 -d 2 -p cbr -e 900 -c 1 -i 47 -a 1 -x {0.0 3.0 47 ------- null}
r -t 0.736719999999999 -s 2 -d 3 -p cbr -e 900 -c 1 -i 29 -a 1 -x {0.0 3.0 29 ------- null}
- -t 0.737599999999999 -s 0 -d 2 -p cbr -e 900 -c 1 -i 33 -a 1 -x {0.0 3.0 33 ------- null}
h -t 0.737599999999999 -s 0 -d 2 -p cbr -e 900 -c 1 -i 33 -a 1 -x {0.0 3.0 -1 ------- null}
+ -t 0.74 -s 0 -d 2 -p cbr -e 900 -c 1 -i 48 -a 1 -x {0.0 3.0 48 ------- null}
r -t 0.7404 -s 0 -d 2 -p cbr -e 900 -c 1 -i 31 -a 1 -x {0.0 3.0 31 ------- null}
+ -t 0.7404 -s 2 -d 3 -p cbr -e 900 -c 1 -i 31 -a 1 -x {0.0 3.0 31 ------- null}
- -t 0.7404 -s 2 -d 3 -p cbr -e 900 -c 1 -i 31 -a 1 -x {0.0 3.0 31 ------- null}
h -t 0.7404 -s 2 -d 3 -p cbr -e 900 -c 1 -i 31 -a 1 -x {0.0 3.0 -1 ------- null}
r -t 0.743919999999999 -s 2 -d 3 -p cbr -e 900 -c 1 -i 30 -a 1 -x {0.0 3.0 30 ------- null}
- -t 0.744799999999999 -s 0 -d 2 -p cbr -e 900 -c 1 -i 34 -a 1 -x {0.0 3.0 34 ------- null}
h -t 0.744799999999999 -s 0 -d 2 -p cbr -e 900 -c 1 -i 34 -a 1 -x {0.0 3.0 -1 ------- null}
+ -t 0.745 -s 0 -d 2 -p cbr -e 900 -c 1 -i 49 -a 1 -x {0.0 3.0 49 ------- null}
r -t 0.747599999999999 -s 0 -d 2 -p cbr -e 900 -c 1 -i 32 -a 1 -x {0.0 3.0 32 ------- null}
+ -t 0.747599999999999 -s 2 -d 3 -p cbr -e 900 -c 1 -i 32 -a 1 -x {0.0 3.0 32 ------- null}
- -t 0.747599999999999 -s 2 -d 3 -p cbr -e 900 -c 1 -i 32 -a 1 -x {0.0 3.0 32 ------- null}
h -t 0.747599999999999 -s 2 -d 3 -p cbr -e 900 -c 1 -i 32 -a 1 -x {0.0 3.0 -1 ------- null}
+ -t 0.75 -s 0 -d 2 -p cbr -e 900 -c 1 -i 50 -a 1 -x {0.0 3.0 50 ------- null}
r -t 0.751119999999999 -s 2 -d 3 -p cbr -e 900 -c 1 -i 31 -a 1 -x {0.0 3.0 31 ------- null}
- -t 0.751999999999999 -s 0 -d 2 -p cbr -e 900 -c 1 -i 35 -a 1 -x {0.0 3.0 35 ------- null}
h -t 0.751999999999999 -s 0 -d 2 -p cbr -e 900 -c 1 -i 35 -a 1 -x {0.0 3.0 -1 ------- null}
r -t 0.754799999999999 -s 0 -d 2 -p cbr -e 900 -c 1 -i 33 -a 1 -x {0.0 3.0 33 ------- null}
+ -t 0.754799999999999 -s 2 -d 3 -p cbr -e 900 -c 1 -i 33 -a 1 -x {0.0 3.0 33 ------- null}
- -t 0.754799999999999 -s 2 -d 3 -p cbr -e 900 -c 1 -i 33 -a 1 -x {0.0 3.0 33 ------- null}
h -t 0.754799999999999 -s 2 -d 3 -p cbr -e 900 -c 1 -i 33 -a 1 -x {0.0 3.0 -1 ------- null}
+ -t 0.755 -s 0 -d 2 -p cbr -e 900 -c 1 -i 51 -a 1 -x {0.0 3.0 51 ------- null}
r -t 0.758319999999999 -s 2 -d 3 -p cbr -e 900 -c 1 -i 32 -a 1 -x {0.0 3.0 32 ------- null}
- -t 0.759199999999999 -s 0 -d 2 -p cbr -e 900 -c 1 -i 36 -a 1 -x {0.0 3.0 36 ------- null}
h -t 0.759199999999999 -s 0 -d 2 -p cbr -e 900 -c 1 -i 36 -a 1 -x {0.0 3.0 -1 ------- null}
+ -t 0.76 -s 0 -d 2 -p cbr -e 900 -c 1 -i 52 -a 1 -x {0.0 3.0 52 ------- null}
r -t 0.761999999999999 -s 0 -d 2 -p cbr -e 900 -c 1 -i 34 -a 1 -x {0.0 3.0 34 ------- null}
+ -t 0.761999999999999 -s 2 -d 3 -p cbr -e 900 -c 1 -i 34 -a 1 -x {0.0 3.0 34 ------- null}
- -t 0.761999999999999 -s 2 -d 3 -p cbr -e 900 -c 1 -i 34 -a 1 -x {0.0 3.0 34 ------- null}
h -t 0.761999999999999 -s 2 -d 3 -p cbr -e 900 -c 1 -i 34 -a 1 -x {0.0 3.0 -1 ------- null}
+ -t 0.765 -s 0 -d 2 -p cbr -e 900 -c 1 -i 53 -a 1 -x {0.0 3.0 53 ------- null}
r -t 0.765519999999999 -s 2 -d 3 -p cbr -e 900 -c 1 -i 33 -a 1 -x {0.0 3.0 33 ------- null}
- -t 0.766399999999999 -s 0 -d 2 -p cbr -e 900 -c 1 -i 37 -a 1 -x {0.0 3.0 37 ------- null}
h -t 0.766399999999999 -s 0 -d 2 -p cbr -e 900 -c 1 -i 37 -a 1 -x {0.0 3.0 -1 ------- null}
r -t 0.769199999999999 -s 0 -d 2 -p cbr -e 900 -c 1 -i 35 -a 1 -x {0.0 3.0 35 ------- null}
+ -t 0.769199999999999 -s 2 -d 3 -p cbr -e 900 -c 1 -i 35 -a 1 -x {0.0 3.0 35 ------- null}
- -t 0.769199999999999 -s 2 -d 3 -p cbr -e 900 -c 1 -i 35 -a 1 -x {0.0 3.0 35 ------- null}
h -t 0.769199999999999 -s 2 -d 3 -p cbr -e 900 -c 1 -i 35 -a 1 -x {0.0 3.0 -1 ------- null}
+ -t 0.77 -s 0 -d 2 -p cbr -e 900 -c 1 -i 54 -a 1 -x {0.0 3.0 54 ------- null}
r -t 0.772719999999999 -s 2 -d 3 -p cbr -e 900 -c 1 -i 34 -a 1 -x {0.0 3.0 34 ------- null}
- -t 0.773599999999999 -s 0 -d 2 -p cbr -e 900 -c 1 -i 38 -a 1 -x {0.0 3.0 38 ------- null}
h -t 0.773599999999999 -s 0 -d 2 -p cbr -e 900 -c 1 -i 38 -a 1 -x {0.0 3.0 -1 ------- null}
+ -t 0.775 -s 0 -d 2 -p cbr -e 900 -c 1 -i 55 -a 1 -x {0.0 3.0 55 ------- null}
r -t 0.776399999999999 -s 0 -d 2 -p cbr -e 900 -c 1 -i 36 -a 1 -x {0.0 3.0 36 ------- null}
+ -t 0.776399999999999 -s 2 -d 3 -p cbr -e 900 -c 1 -i 36 -a 1 -x {0.0 3.0 36 ------- null}
- -t 0.776399999999999 -s 2 -d 3 -p cbr -e 900 -c 1 -i 36 -a 1 -x {0.0 3.0 36 ------- null}
h -t 0.776399999999999 -s 2 -d 3 -p cbr -e 900 -c 1 -i 36 -a 1 -x {0.0 3.0 -1 ------- null}
r -t 0.779919999999999 -s 2 -d 3 -p cbr -e 900 -c 1 -i 35 -a 1 -x {0.0 3.0 35 ------- null}
+ -t 0.78 -s 0 -d 2 -p cbr -e 900 -c 1 -i 56 -a 1 -x {0.0 3.0 56 ------- null}
- -t 0.780799999999999 -s 0 -d 2 -p cbr -e 900 -c 1 -i 39 -a 1 -x {0.0 3.0 39 ------- null}
h -t 0.780799999999999 -s 0 -d 2 -p cbr -e 900 -c 1 -i 39 -a 1 -x {0.0 3.0 -1 ------- null}
r -t 0.783599999999999 -s 0 -d 2 -p cbr -e 900 -c 1 -i 37 -a 1 -x {0.0 3.0 37 ------- null}
+ -t 0.783599999999999 -s 2 -d 3 -p cbr -e 900 -c 1 -i 37 -a 1 -x {0.0 3.0 37 ------- null}
- -t 0.783599999999999 -s 2 -d 3 -p cbr -e 900 -c 1 -i 37 -a 1 -x {0.0 3.0 37 ------- null}
h -t 0.783599999999999 -s 2 -d 3 -p cbr -e 900 -c 1 -i 37 -a 1 -x {0.0 3.0 -1 ------- null}
+ -t 0.785 -s 0 -d 2 -p cbr -e 900 -c 1 -i 57 -a 1 -x {0.0 3.0 57 ------- null}
r -t 0.787119999999999 -s 2 -d 3 -p cbr -e 900 -c 1 -i 36 -a 1 -x {0.0 3.0 36 ------- null}
- -t 0.787999999999999 -s 0 -d 2 -p cbr -e 900 -c 1 -i 40 -a 1 -x {0.0 3.0 40 ------- null}
h -t 0.787999999999999 -s 0 -d 2 -p cbr -e 900 -c 1 -i 40 -a 1 -x {0.0 3.0 -1 ------- null}
+ -t 0.79 -s 0 -d 2 -p cbr -e 900 -c 1 -i 58 -a 1 -x {0.0 3.0 58 ------- null}
r -t 0.790799999999999 -s 0 -d 2 -p cbr -e 900 -c 1 -i 38 -a 1 -x {0.0 3.0 38 ------- null}
+ -t 0.790799999999999 -s 2 -d 3 -p cbr -e 900 -c 1 -i 38 -a 1 -x {0.0 3.0 38 ------- null}
- -t 0.790799999999999 -s 2 -d 3 -p cbr -e 900 -c 1 -i 38 -a 1 -x {0.0 3.0 38 ------- null}
h -t 0.790799999999999 -s 2 -d 3 -p cbr -e 900 -c 1 -i 38 -a 1 -x {0.0 3.0 -1 ------- null}
r -t 0.794319999999999 -s 2 -d 3 -p cbr -e 900 -c 1 -i 37 -a 1 -x {0.0 3.0 37 ------- null}
+ -t 0.795 -s 0 -d 2 -p cbr -e 900 -c 1 -i 59 -a 1 -x {0.0 3.0 59 ------- null}
- -t 0.795199999999999 -s 0 -d 2 -p cbr -e 900 -c 1 -i 41 -a 1 -x {0.0 3.0 41 ------- null}
h -t 0.795199999999999 -s 0 -d 2 -p cbr -e 900 -c 1 -i 41 -a 1 -x {0.0 3.0 -1 ------- null}
r -t 0.797999999999999 -s 0 -d 2 -p cbr -e 900 -c 1 -i 39 -a 1 -x {0.0 3.0 39 ------- null}
+ -t 0.797999999999999 -s 2 -d 3 -p cbr -e 900 -c 1 -i 39 -a 1 -x {0.0 3.0 39 ------- null}
- -t 0.797999999999999 -s 2 -d 3 -p cbr -e 900 -c 1 -i 39 -a 1 -x {0.0 3.0 39 ------- null}
h -t 0.797999999999999 -s 2 -d 3 -p cbr -e 900 -c 1 -i 39 -a 1 -x {0.0 3.0 -1 ------- null}
+ -t 0.8 -s 0 -d 2 -p cbr -e 900 -c 1 -i 60 -a 1 -x {0.0 3.0 60 ------- null}
r -t 0.801519999999999 -s 2 -d 3 -p cbr -e 900 -c 1 -i 38 -a 1 -x {0.0 3.0 38 ------- null}
- -t 0.802399999999999 -s 0 -d 2 -p cbr -e 900 -c 1 -i 42 -a 1 -x {0.0 3.0 42 ------- null}
h -t 0.802399999999999 -s 0 -d 2 -p cbr -e 900 -c 1 -i 42 -a 1 -x {0.0 3.0 -1 ------- null}
+ -t 0.805 -s 0 -d 2 -p cbr -e 900 -c 1 -i 61 -a 1 -x {0.0 3.0 61 ------- null}
r -t 0.805199999999999 -s 0 -d 2 -p cbr -e 900 -c 1 -i 40 -a 1 -x {0.0 3.0 40 ------- null}
+ -t 0.805199999999999 -s 2 -d 3 -p cbr -e 900 -c 1 -i 40 -a 1 -x {0.0 3.0 40 ------- null}
- -t 0.805199999999999 -s 2 -d 3 -p cbr -e 900 -c 1 -i 40 -a 1 -x {0.0 3.0 40 ------- null}
h -t 0.805199999999999 -s 2 -d 3 -p cbr -e 900 -c 1 -i 40 -a 1 -x {0.0 3.0 -1 ------- null}
r -t 0.808719999999999 -s 2 -d 3 -p cbr -e 900 -c 1 -i 39 -a 1 -x {0.0 3.0 39 ------- null}
- -t 0.809599999999999 -s 0 -d 2 -p cbr -e 900 -c 1 -i 43 -a 1 -x {0.0 3.0 43 ------- null}
h -t 0.809599999999999 -s 0 -d 2 -p cbr -e 900 -c 1 -i 43 -a 1 -x {0.0 3.0 -1 ------- null}
+ -t 0.81 -s 0 -d 2 -p cbr -e 900 -c 1 -i 62 -a 1 -x {0.0 3.0 62 ------- null}
r -t 0.812399999999999 -s 0 -d 2 -p cbr -e 900 -c 1 -i 41 -a 1 -x {0.0 3.0 41 ------- null}
+ -t 0.812399999999999 -s 2 -d 3 -p cbr -e 900 -c 1 -i 41 -a 1 -x {0.0 3.0 41 ------- null}