V -t * -v 1.0a5 -a 0
A -t * -n 1 -p 0 -o 0xffffffff -c 31 -a 1
A -t * -h 1 -m 2147483647 -s 0
+ -t 0.000000000 -s 0 -d -1 -p tcp -e 40 -c 2 -a 0 -i 0 -k AGT 
- -t 0.000000000 -s 0 -d -1 -p tcp -e 40 -c 2 -a 0 -i 0 -k AGT
h -t 0.000000000 -s 0 -d -1 -p tcp -e 40 -c 2 -a 0 -i 0 -k AGT
+ -t 0.031538939 -s 1 -d -1 -p message -e 32 -c 2 -a 0 -i 1 -k RTR 
- -t 0.031538939 -s 1 -d -1 -p message -e 32 -c 2 -a 0 -i 1 -k RTR
h -t 0.031538939 -s 1 -d -1 -p message -e 32 -c 2 -a 0 -i 1 -k RTR
r -t 0.032599606 -s 0 -d -1 -p message -e 32 -c 2 -a 0 -i 1 -k RTR
r -t 0.032599606 -s 2 -d -1 -p message -e 32 -c 2 -a 0 -i 1 -k RTR
+ -t 0.179336133 -s 2 -d -1 -p message -e 32 -c 2 -a 0 -i 2 -k RTR 
- -t 0.179336133 -s 2 -d -1 -p message -e 32 -c 2 -a 0 -i 2 -k RTR
h -t 0.179336133 -s 2 -d -1 -p message -e 32 -c 2 -a 0 -i 2 -k RTR
r -t 0.180196800 -s 1 -d -1 -p message -e 32 -c 2 -a 0 -i 2 -k RTR
r -t 0.180196800 -s 3 -d -1 -p message -e 32 -c 2 -a 0 -i 2 -k RTR
+ -t 0.888747441 -s 3 -d -1 -p message -e 32 -c 2 -a 0 -i 3 -k RTR 
- -t 0.888747441 -s 3 -d -1 -p message -e 32 -c 2 -a 0 -i 3 -k RTR
h -t 0.888747441 -s 3 -d -1 -p message -e 32 -c 2 -a 0 -i 3 -k RTR
r -t 0.889808107 -s 2 -d -1 -p message -e 32 -c 2 -a 0 -i 3 -k RTR
r -t 0.889808107 -s 4 -d -1 -p message -e 32 -c 2 -a 0 -i 3 -k RTR
+ -t 1.113509485 -s 0 -d -1 -p message -e 32 -c 2 -a 0 -i 4 -k RTR 
- -t 1.113509485 -s 0 -d -1 -p message -e 32 -c 2 -a 0 -i 4 -k RTR
h -t 1.113509485 -s 0 -d -1 -p message -e 32 -c 2 -a 0 -i 4 -k RTR
r -t 1.114650151 -s 1 -d -1 -p message -e 32 -c 2 -a 0 -i 4 -k RTR
+ -t 1.600891786 -s 4 -d -1 -p message -e 32 -c 2 -a 0 -i 5 -k RTR 
- -t 1.600891786 -s 4 -d -1 -p message -e 32 -c 2 -a 0 -i 5 -k RTR
h -t 1.600891786 -s 4 -d -1 -p message -e 32 -c 2 -a 0 -i 5 -k RTR
r -t 1.601952453 -s 3 -d -1 -p message -e 32 -c 2 -a 0 -i 5 -k RTR
+ -t 3.000000000 -s 0 -d -1 -p tcp -e 40 -c 2 -a 0 -i 6 -k AGT 
- -t 3.000000000 -s 0 -d -1 -p tcp -e 40 -c 2 -a 0 -i 6 -k AGT
h -t 3.000000000 -s 0 -d -1 -p tcp -e 40 -c 2 -a 0 -i 6 -k AGT
+ -t 9.000000000 -s 0 -d -1 -p tcp -e 40 -c 2 -a 0 -i 7 -k AGT 
- -t 9.000000000 -s 0 -d -1 -p tcp -e 40 -c 2 -a 0 -i 7 -k AGT
h -t 9.000000000 -s 0 -d -1 -p tcp -e 40 -c 2 -a 0 -i 7 -k AGT
+ -t 12.039522674 -s 0 -d -1 -p message -e 32 -c 2 -a 0 -i 8 -k RTR 
- -t 12.039522674 -s 0 -d -1 -p message -e 32 -c 2 -a 0 -i 8 -k RTR
h -t 12.039522674 -s 0 -d -1 -p message -e 32 -c 2 -a 0 -i 8 -k RTR
r -t 12.040743341 -s 1 -d -1 -p message -e 32 -c 2 -a 0 -i 8 -k RTR
+ -t 12.041220278 -s 2 -d -1 -p message -e 32 -c 2 -a 0 -i 9 -k RTR 
- -t 12.041220278 -s 2 -d -1 -p message -e 32 -c 2 -a 0 -i 9 -k RTR
h -t 12.041220278 -s 2 -d -1 -p message -e 32 -c 2 -a 0 -i 9 -k RTR
r -t 12.042400945 -s 1 -d -1 -p message -e 32 -c 2 -a 0 -i 9 -k RTR
r -t 12.042400945 -s 3 -d -1 -p message -e 32 -c 2 -a 0 -i 9 -k RTR
+ -t 12.186970289 -s 1 -d -1 -p message -e 32 -c 2 -a 0 -i 10 -k RTR 
- -t 12.186970289 -s 1 -d -1 -p message -e 32 -c 2 -a 0 -i 10 -k RTR
h -t 12.186970289 -s 1 -d -1 -p message -e 32 -c 2 -a 0 -i 10 -k RTR
+ -t 12.187819119 -s 3 -d -1 -p message -e 32 -c 2 -a 0 -i 11 -k RTR 
- -t 12.187819119 -s 3 -d -1 -p message -e 32 -c 2 -a 0 -i 11 -k RTR
h -t 12.187819119 -s 3 -d -1 -p message -e 32 -c 2 -a 0 -i 11 -k RTR
r -t 12.187930956 -s 0 -d -1 -p message -e 32 -c 2 -a 0 -i 10 -k RTR
r -t 12.187930956 -s 2 -d -1 -p message -e 32 -c 2 -a 0 -i 10 -k RTR
r -t 12.189146289 -s 2 -d -1 -p message -e 32 -c 2 -a 0 -i 11 -k RTR
r -t 12.189146289 -s 4 -d -1 -p message -e 32 -c 2 -a 0 -i 11 -k RTR
+ -t 12.561001349 -s 3 -d -1 -p message -e 44 -c 2 -a 0 -i 12 -k RTR 
- -t 12.561001349 -s 3 -d -1 -p message -e 44 -c 2 -a 0 -i 12 -k RTR
h -t 12.561001349 -s 3 -d -1 -p message -e 44 -c 2 -a 0 -i 12 -k RTR
r -t 12.562138015 -s 2 -d -1 -p message -e 44 -c 2 -a 0 -i 12 -k RTR
r -t 12.562138015 -s 4 -d -1 -p message -e 44 -c 2 -a 0 -i 12 -k RTR
+ -t 12.715902450 -s 0 -d -1 -p message -e 44 -c 2 -a 0 -i 13 -k RTR 
- -t 12.715902450 -s 0 -d -1 -p message -e 44 -c 2 -a 0 -i 13 -k RTR
h -t 12.715902450 -s 0 -d -1 -p message -e 44 -c 2 -a 0 -i 13 -k RTR
r -t 12.716939116 -s 1 -d -1 -p message -e 44 -c 2 -a 0 -i 13 -k RTR
+ -t 13.035956233 -s 2 -d -1 -p message -e 32 -c 2 -a 0 -i 15 -k RTR 
- -t 13.035956233 -s 2 -d -1 -p message -e 32 -c 2 -a 0 -i 15 -k RTR
h -t 13.035956233 -s 2 -d -1 -p message -e 32 -c 2 -a 0 -i 15 -k RTR
r -t 13.037056900 -s 1 -d -1 -p message -e 32 -c 2 -a 0 -i 15 -k RTR
r -t 13.037056900 -s 3 -d -1 -p message -e 32 -c 2 -a 0 -i 15 -k RTR
+ -t 13.182766737 -s 1 -d -1 -p message -e 32 -c 2 -a 0 -i 16 -k RTR 
- -t 13.182766737 -s 1 -d -1 -p message -e 32 -c 2 -a 0 -i 16 -k RTR
h -t 13.182766737 -s 1 -d -1 -p message -e 32 -c 2 -a 0 -i 16 -k RTR
r -t 13.184067404 -s 0 -d -1 -p message -e 32 -c 2 -a 0 -i 16 -k RTR
r -t 13.184067404 -s 2 -d -1 -p message -e 32 -c 2 -a 0 -i 16 -k RTR
+ -t 13.610719010 -s 3 -d -1 -p message -e 32 -c 2 -a 0 -i 17 -k RTR 
- -t 13.610719010 -s 3 -d -1 -p message -e 32 -c 2 -a 0 -i 17 -k RTR
h -t 13.610719010 -s 3 -d -1 -p message -e 32 -c 2 -a 0 -i 17 -k RTR
r -t 13.611859677 -s 2 -d -1 -p message -e 32 -c 2 -a 0 -i 17 -k RTR
r -t 13.611859677 -s 4 -d -1 -p message -e 32 -c 2 -a 0 -i 17 -k RTR
+ -t 14.344451387 -s 1 -d -1 -p message -e 44 -c 2 -a 0 -i 18 -k RTR 
- -t 14.344451387 -s 1 -d -1 -p message -e 44 -c 2 -a 0 -i 18 -k RTR
h -t 14.344451387 -s 1 -d -1 -p message -e 44 -c 2 -a 0 -i 18 -k RTR
r -t 14.345668054 -s 0 -d -1 -p message -e 44 -c 2 -a 0 -i 18 -k RTR
r -t 14.345668054 -s 2 -d -1 -p message -e 44 -c 2 -a 0 -i 18 -k RTR
+ -t 14.388732063 -s 4 -d -1 -p message -e 32 -c 2 -a 0 -i 19 -k RTR 
- -t 14.388732063 -s 4 -d -1 -p message -e 32 -c 2 -a 0 -i 19 -k RTR
h -t 14.388732063 -s 4 -d -1 -p message -e 32 -c 2 -a 0 -i 19 -k RTR
r -t 14.389832730 -s 3 -d -1 -p message -e 32 -c 2 -a 0 -i 19 -k RTR
+ -t 14.569407979 -s 2 -d -1 -p message -e 32 -c 2 -a 0 -i 20 -k RTR 
- -t 14.569407979 -s 2 -d -1 -p message -e 32 -c 2 -a 0 -i 20 -k RTR
h -t 14.569407979 -s 2 -d -1 -p message -e 32 -c 2 -a 0 -i 20 -k RTR
r -t 14.570348645 -s 1 -d -1 -p message -e 32 -c 2 -a 0 -i 20 -k RTR
r -t 14.570348645 -s 3 -d -1 -p message -e 32 -c 2 -a 0 -i 20 -k RTR
+ -t 21.000000000 -s 0 -d -1 -p tcp -e 40 -c 2 -a 0 -i 21 -k AGT 
- -t 21.000000000 -s 0 -d -1 -p tcp -e 40 -c 2 -a 0 -i 21 -k AGT
h -t 21.000000000 -s 0 -d -1 -p tcp -e 40 -c 2 -a 0 -i 21 -k AGT
+ -t 24.047318162 -s 3 -d -1 -p message -e 32 -c 2 -a 0 -i 22 -k RTR 
- -t 24.047318162 -s 3 -d -1 -p message -e 32 -c 2 -a 0 -i 22 -k RTR
h -t 24.047318162 -s 3 -d -1 -p message -e 32 -c 2 -a 0 -i 22 -k RTR
r -t 24.048598829 -s 2 -d -1 -p message -e 32 -c 2 -a 0 -i 22 -k RTR
r -t 24.048598829 -s 4 -d -1 -p message -e 32 -c 2 -a 0 -i 22 -k RTR
+ -t 24.189120975 -s 0 -d -1 -p message -e 32 -c 2 -a 0 -i 23 -k RTR 
- -t 24.189120975 -s 0 -d -1 -p message -e 32 -c 2 -a 0 -i 23 -k RTR
h -t 24.189120975 -s 0 -d -1 -p message -e 32 -c 2 -a 0 -i 23 -k RTR
r -t 24.190021642 -s 1 -d -1 -p message -e 32 -c 2 -a 0 -i 23 -k RTR
+ -t 24.190028291 -s 4 -d -1 -p message -e 44 -c 2 -a 0 -i 24 -k RTR 
- -t 24.190028291 -s 4 -d -1 -p message -e 44 -c 2 -a 0 -i 24 -k RTR
h -t 24.190028291 -s 4 -d -1 -p message -e 44 -c 2 -a 0 -i 24 -k RTR
r -t 24.191004957 -s 3 -d -1 -p message -e 44 -c 2 -a 0 -i 24 -k RTR
+ -t 25.192538453 -s 0 -d -1 -p message -e 44 -c 2 -a 0 -i 25 -k RTR 
- -t 25.192538453 -s 0 -d -1 -p message -e 44 -c 2 -a 0 -i 25 -k RTR
h -t 25.192538453 -s 0 -d -1 -p message -e 44 -c 2 -a 0 -i 25 -k RTR
r -t 25.193575119 -s 1 -d -1 -p message -e 44 -c 2 -a 0 -i 25 -k RTR
+ -t 25.619879795 -s 2 -d -1 -p message -e 56 -c 2 -a 0 -i 26 -k RTR 
- -t 25.619879795 -s 2 -d -1 -p message -e 56 -c 2 -a 0 -i 26 -k RTR
h -t 25.619879795 -s 2 -d -1 -p message -e 56 -c 2 -a 0 -i 26 -k RTR
r -t 25.621012462 -s 1 -d -1 -p message -e 56 -c 2 -a 0 -i 26 -k RTR
r -t 25.621012462 -s 3 -d -1 -p message -e 56 -c 2 -a 0 -i 26 -k RTR
+ -t 25.701690859 -s 1 -d -1 -p message -e 44 -c 2 -a 0 -i 27 -k RTR 
- -t 25.701690859 -s 1 -d -1 -p message -e 44 -c 2 -a 0 -i 27 -k RTR
h -t 25.701690859 -s 1 -d -1 -p message -e 44 -c 2 -a 0 -i 27 -k RTR
r -t 25.702907526 -s 0 -d -1 -p message -e 44 -c 2 -a 0 -i 27 -k RTR
r -t 25.702907526 -s 2 -d -1 -p message -e 44 -c 2 -a 0 -i 27 -k RTR
+ -t 26.486751818 -s 2 -d -1 -p message -e 56 -c 2 -a 0 -i 28 -k RTR 
- -t 26.486751818 -s 2 -d -1 -p message -e 56 -c 2 -a 0 -i 28 -k RTR
h -t 26.486751818 -s 2 -d -1 -p message -e 56 -c 2 -a 0 -i 28 -k RTR
r -t 26.487804485 -s 1 -d -1 -p message -e 56 -c 2 -a 0 -i 28 -k RTR
r -t 26.487804485 -s 3 -d -1 -p message -e 56 -c 2 -a 0 -i 28 -k RTR
+ -t 27.137875293 -s 3 -d -1 -p message -e 44 -c 2 -a 0 -i 29 -k RTR 
- -t 27.137875293 -s 3 -d -1 -p message -e 44 -c 2 -a 0 -i 29 -k RTR
h -t 27.137875293 -s 3 -d -1 -p message -e 44 -c 2 -a 0 -i 29 -k RTR
r -t 27.138951960 -s 2 -d -1 -p message -e 44 -c 2 -a 0 -i 29 -k RTR
r -t 27.138951960 -s 4 -d -1 -p message -e 44 -c 2 -a 0 -i 29 -k RTR
+ -t 29.181770825 -s 4 -d -1 -p message -e 44 -c 2 -a 0 -i 30 -k RTR 
- -t 29.181770825 -s 4 -d -1 -p message -e 44 -c 2 -a 0 -i 30 -k RTR
h -t 29.181770825 -s 4 -d -1 -p message -e 44 -c 2 -a 0 -i 30 -k RTR
r -t 29.182847492 -s 3 -d -1 -p message -e 44 -c 2 -a 0 -i 30 -k RTR
+ -t 36.051816177 -s 4 -d -1 -p message -e 32 -c 2 -a 0 -i 31 -k RTR 
- -t 36.051816177 -s 4 -d -1 -p message -e 32 -c 2 -a 0 -i 31 -k RTR
h -t 36.051816177 -s 4 -d -1 -p message -e 32 -c 2 -a 0 -i 31 -k RTR
r -t 36.052776844 -s 3 -d -1 -p message -e 32 -c 2 -a 0 -i 31 -k RTR
+ -t 37.622724652 -s 1 -d -1 -p message -e 80 -c 2 -a 0 -i 32 -k RTR 
- -t 37.622724652 -s 1 -d -1 -p message -e 80 -c 2 -a 0 -i 32 -k RTR
h -t 37.622724652 -s 1 -d -1 -p message -e 80 -c 2 -a 0 -i 32 -k RTR
r -t 37.624429319 -s 0 -d -1 -p message -e 80 -c 2 -a 0 -i 32 -k RTR
+ -t 37.624429319 -s 0 -d 1 -p tcp -e 80 -c 2 -a 0 -i 0 -k RTR 
- -t 37.624429319 -s 0 -d 1 -p tcp -e 80 -c 2 -a 0 -i 0 -k RTR
h -t 37.624429319 -s 0 -d 1 -p tcp -e 80 -c 2 -a 0 -i 0 -k RTR
+ -t 37.624429319 -s 0 -d 1 -p tcp -e 80 -c 2 -a 0 -i 6 -k RTR 
- -t 37.624429319 -s 0 -d 1 -p tcp -e 80 -c 2 -a 0 -i 6 -k RTR
h -t 37.624429319 -s 0 -d 1 -p tcp -e 80 -c 2 -a 0 -i 6 -k RTR
d -t 37.624429319 -s 0 -d 1 -p tcp -e 80 -c 2 -a 0 -i 0 -k IFQ
+ -t 37.624429319 -s 0 -d 1 -p tcp -e 80 -c 2 -a 0 -i 7 -k RTR 
- -t 37.624429319 -s 0 -d 1 -p tcp -e 80 -c 2 -a 0 -i 7 -k RTR
h -t 37.624429319 -s 0 -d 1 -p tcp -e 80 -c 2 -a 0 -i 7 -k RTR
d -t 37.624429319 -s 0 -d 1 -p tcp -e 80 -c 2 -a 0 -i 6 -k IFQ
+ -t 37.624429319 -s 0 -d 1 -p tcp -e 80 -c 2 -a 0 -i 21 -k RTR 
- -t 37.624429319 -s 0 -d 1 -p tcp -e 80 -c 2 -a 0 -i 21 -k RTR
h -t 37.624429319 -s 0 -d 1 -p tcp -e 80 -c 2 -a 0 -i 21 -k RTR
d -t 37.624429319 -s 0 -d 1 -p tcp -e 80 -c 2 -a 0 -i 7 -k RTR
d -t 37.624429319 -s 0 -d 1 -p tcp -e 80 -c 2 -a 0 -i 21 -k RTR
r -t 37.624429319 -s 2 -d -1 -p message -e 80 -c 2 -a 0 -i 32 -k RTR
+ -t 38.193695832 -s 0 -d -1 -p message -e 44 -c 2 -a 0 -i 33 -k RTR 
- -t 38.193695832 -s 0 -d -1 -p message -e 44 -c 2 -a 0 -i 33 -k RTR
h -t 38.193695832 -s 0 -d -1 -p message -e 44 -c 2 -a 0 -i 33 -k RTR
r -t 38.194632499 -s 1 -d -1 -p message -e 44 -c 2 -a 0 -i 33 -k RTR
+ -t 39.637149146 -s 3 -d -1 -p message -e 68 -c 2 -a 0 -i 35 -k RTR 
- -t 39.637149146 -s 3 -d -1 -p message -e 68 -c 2 -a 0 -i 35 -k RTR
h -t 39.637149146 -s 3 -d -1 -p message -e 68 -c 2 -a 0 -i 35 -k RTR
r -t 39.638277812 -s 2 -d -1 -p message -e 68 -c 2 -a 0 -i 35 -k RTR
r -t 39.638277812 -s 4 -d -1 -p message -e 68 -c 2 -a 0 -i 35 -k RTR
+ -t 39.785497100 -s 2 -d -1 -p message -e 32 -c 2 -a 0 -i 36 -k RTR 
- -t 39.785497100 -s 2 -d -1 -p message -e 32 -c 2 -a 0 -i 36 -k RTR
h -t 39.785497100 -s 2 -d -1 -p message -e 32 -c 2 -a 0 -i 36 -k RTR
r -t 39.786797767 -s 1 -d -1 -p message -e 32 -c 2 -a 0 -i 36 -k RTR
r -t 39.786797767 -s 3 -d -1 -p message -e 32 -c 2 -a 0 -i 36 -k RTR
+ -t 41.802705507 -s 4 -d -1 -p message -e 32 -c 2 -a 0 -i 37 -k RTR 
- -t 41.802705507 -s 4 -d -1 -p message -e 32 -c 2 -a 0 -i 37 -k RTR
h -t 41.802705507 -s 4 -d -1 -p message -e 32 -c 2 -a 0 -i 37 -k RTR
r -t 41.803706174 -s 3 -d -1 -p message -e 32 -c 2 -a 0 -i 37 -k RTR
+ -t 45.000000000 -s 0 -d -1 -p tcp -e 40 -c 2 -a 0 -i 38 -k AGT 
- -t 45.000000000 -s 0 -d -1 -p tcp -e 40 -c 2 -a 0 -i 38 -k AGT
h -t 45.000000000 -s 0 -d -1 -p tcp -e 40 -c 2 -a 0 -i 38 -k AGT
+ -t 45.000000000 -s 0 -d 1 -p tcp -e 60 -c 2 -a 0 -i 38 -k RTR 
- -t 45.000000000 -s 0 -d 1 -p tcp -e 60 -c 2 -a 0 -i 38 -k RTR
h -t 45.000000000 -s 0 -d 1 -p tcp -e 60 -c 2 -a 0 -i 38 -k RTR
+ -t 45.001962000 -s 1 -d 2 -p tcp -e 60 -c 2 -a 0 -i 38 -k RTR 
- -t 45.001962000 -s 1 -d 2 -p tcp -e 60 -c 2 -a 0 -i 38 -k RTR
h -t 45.001962000 -s 1 -d 2 -p tcp -e 60 -c 2 -a 0 -i 38 -k RTR
+ -t 45.007521667 -s 2 -d 3 -p tcp -e 60 -c 2 -a 0 -i 38 -k RTR 
- -t 45.007521667 -s 2 -d 3 -p tcp -e 60 -c 2 -a 0 -i 38 -k RTR
h -t 45.007521667 -s 2 -d 3 -p tcp -e 60 -c 2 -a 0 -i 38 -k RTR
+ -t 45.012661333 -s 3 -d 4 -p tcp -e 60 -c 2 -a 0 -i 38 -k RTR 
- -t 45.012661333 -s 3 -d 4 -p tcp -e 60 -c 2 -a 0 -i 38 -k RTR
h -t 45.012661333 -s 3 -d 4 -p tcp -e 60 -c 2 -a 0 -i 38 -k RTR
r -t 45.017401000 -s 4 -d 4 -p tcp -e 60 -c 2 -a 0 -i 38 -k AGT
+ -t 45.017401000 -s 4 -d -1 -p ack -e 40 -c 2 -a 0 -i 39 -k AGT 
- -t 45.017401000 -s 4 -d -1 -p ack -e 40 -c 2 -a 0 -i 39 -k AGT
h -t 45.017401000 -s 4 -d -1 -p ack -e 40 -c 2 -a 0 -i 39 -k AGT
+ -t 49.625947258 -s 0 -d -1 -p message -e 56 -c 2 -a 0 -i 40 -k RTR 
- -t 49.625947258 -s 0 -d -1 -p message -e 56 -c 2 -a 0 -i 40 -k RTR
h -t 49.625947258 -s 0 -d -1 -p message -e 56 -c 2 -a 0 -i 40 -k RTR
r -t 49.627319924 -s 1 -d -1 -p message -e 56 -c 2 -a 0 -i 40 -k RTR
+ -t 49.629831636 -s 2 -d -1 -p message -e 80 -c 2 -a 0 -i 41 -k RTR 
- -t 49.629831636 -s 2 -d -1 -p message -e 80 -c 2 -a 0 -i 41 -k RTR
h -t 49.629831636 -s 2 -d -1 -p message -e 80 -c 2 -a 0 -i 41 -k RTR
r -t 49.631536302 -s 1 -d -1 -p message -e 80 -c 2 -a 0 -i 41 -k RTR
r -t 49.631536302 -s 3 -d -1 -p message -e 80 -c 2 -a 0 -i 41 -k RTR
+ -t 49.896107710 -s 0 -d -1 -p message -e 80 -c 2 -a 0 -i 42 -k RTR 
- -t 49.896107710 -s 0 -d -1 -p message -e 80 -c 2 -a 0 -i 42 -k RTR
h -t 49.896107710 -s 0 -d -1 -p message -e 80 -c 2 -a 0 -i 42 -k RTR
r -t 49.897852376 -s 1 -d -1 -p message -e 80 -c 2 -a 0 -i 42 -k RTR
+ -t 51.900378781 -s 1 -d -1 -p message -e 32 -c 2 -a 0 -i 43 -k RTR 
- -t 51.900378781 -s 1 -d -1 -p message -e 32 -c 2 -a 0 -i 43 -k RTR
h -t 51.900378781 -s 1 -d -1 -p message -e 32 -c 2 -a 0 -i 43 -k RTR
r -t 51.901199447 -s 0 -d -1 -p message -e 32 -c 2 -a 0 -i 43 -k RTR
r -t 51.901199447 -s 2 -d -1 -p message -e 32 -c 2 -a 0 -i 43 -k RTR
+ -t 52.470460113 -s 3 -d -1 -p message -e 44 -c 2 -a 0 -i 44 -k RTR 
- -t 52.470460113 -s 3 -d -1 -p message -e 44 -c 2 -a 0 -i 44 -k RTR
h -t 52.470460113 -s 3 -d -1 -p message -e 44 -c 2 -a 0 -i 44 -k RTR
r -t 52.471716780 -s 2 -d -1 -p message -e 44 -c 2 -a 0 -i 44 -k RTR
r -t 52.471716780 -s 4 -d -1 -p message -e 44 -c 2 -a 0 -i 44 -k RTR
+ -t 53.940952308 -s 4 -d -1 -p message -e 56 -c 2 -a 0 -i 45 -k RTR 
- -t 53.940952308 -s 4 -d -1 -p message -e 56 -c 2 -a 0 -i 45 -k RTR
h -t 53.940952308 -s 4 -d -1 -p message -e 56 -c 2 -a 0 -i 45 -k RTR
r -t 53.942484975 -s 3 -d -1 -p message -e 56 -c 2 -a 0 -i 45 -k RTR
+ -t 61.631952032 -s 3 -d -1 -p message -e 80 -c 2 -a 0 -i 46 -k RTR 
- -t 61.631952032 -s 3 -d -1 -p message -e 80 -c 2 -a 0 -i 46 -k RTR
h -t 61.631952032 -s 3 -d -1 -p message -e 80 -c 2 -a 0 -i 46 -k RTR
r -t 61.633156699 -s 2 -d -1 -p message -e 80 -c 2 -a 0 -i 46 -k RTR
r -t 61.633156699 -s 4 -d -1 -p message -e 80 -c 2 -a 0 -i 46 -k RTR
+ -t 61.633156699 -s 4 -d 3 -p ack -e 80 -c 2 -a 0 -i 39 -k RTR 
- -t 61.633156699 -s 4 -d 3 -p ack -e 80 -c 2 -a 0 -i 39 -k RTR
h -t 61.633156699 -s 4 -d 3 -p ack -e 80 -c 2 -a 0 -i 39 -k RTR
+ -t 61.635358699 -s 3 -d 2 -p ack -e 80 -c 2 -a 0 -i 39 -k RTR 
- -t 61.635358699 -s 3 -d 2 -p ack -e 80 -c 2 -a 0 -i 39 -k RTR
h -t 61.635358699 -s 3 -d 2 -p ack -e 80 -c 2 -a 0 -i 39 -k RTR
+ -t 61.637704699 -s 2 -d 1 -p ack -e 80 -c 2 -a 0 -i 39 -k RTR 
- -t 61.637704699 -s 2 -d 1 -p ack -e 80 -c 2 -a 0 -i 39 -k RTR
h -t 61.637704699 -s 2 -d 1 -p ack -e 80 -c 2 -a 0 -i 39 -k RTR
+ -t 61.639910699 -s 1 -d 0 -p ack -e 80 -c 2 -a 0 -i 39 -k RTR 
- -t 61.639910699 -s 1 -d 0 -p ack -e 80 -c 2 -a 0 -i 39 -k RTR
h -t 61.639910699 -s 1 -d 0 -p ack -e 80 -c 2 -a 0 -i 39 -k RTR
r -t 61.642456699 -s 0 -d 0 -p ack -e 80 -c 2 -a 0 -i 39 -k AGT
+ -t 61.642456699 -s 0 -d -1 -p tcp -e 1480 -c 2 -a 0 -i 47 -k AGT 
- -t 61.642456699 -s 0 -d -1 -p tcp -e 1480 -c 2 -a 0 -i 47 -k AGT
h -t 61.642456699 -s 0 -d -1 -p tcp -e 1480 -c 2 -a 0 -i 47 -k AGT
+ -t 61.642456699 -s 0 -d 1 -p tcp -e 1500 -c 2 -a 0 -i 47 -k RTR 
- -t 61.642456699 -s 0 -d 1 -p tcp -e 1500 -c 2 -a 0 -i 47 -k RTR
h -t 61.642456699 -s 0 -d 1 -p tcp -e 1500 -c 2 -a 0 -i 47 -k RTR
+ -t 61.656422699 -s 1 -d 2 -p tcp -e 1500 -c 2 -a 0 -i 47 -k RTR 
- -t 61.656422699 -s 1 -d 2 -p tcp -e 1500 -c 2 -a 0 -i 47 -k RTR
h -t 61.656422699 -s 1 -d 2 -p tcp -e 1500 -c 2 -a 0 -i 47 -k RTR
+ -t 61.669928699 -s 2 -d 3 -p tcp -e 1500 -c 2 -a 0 -i 47 -k RTR 
- -t 61.669928699 -s 2 -d 3 -p tcp -e 1500 -c 2 -a 0 -i 47 -k RTR
h -t 61.669928699 -s 2 -d 3 -p tcp -e 1500 -c 2 -a 0 -i 47 -k RTR
+ -t 61.683994699 -s 3 -d 4 -p tcp -e 1500 -c 2 -a 0 -i 47 -k RTR 
- -t 61.683994699 -s 3 -d 4 -p tcp -e 1500 -c 2 -a 0 -i 47 -k RTR
h -t 61.683994699 -s 3 -d 4 -p tcp -e 1500 -c 2 -a 0 -i 47 -k RTR
r -t 61.697840699 -s 4 -d 4 -p tcp -e 1500 -c 2 -a 0 -i 47 -k AGT
+ -t 61.697840699 -s 4 -d -1 -p ack -e 40 -c 2 -a 0 -i 48 -k AGT 
- -t 61.697840699 -s 4 -d -1 -p ack -e 40 -c 2 -a 0 -i 48 -k AGT
h -t 61.697840699 -s 4 -d -1 -p ack -e 40 -c 2 -a 0 -i 48 -k AGT
+ -t 61.697840699 -s 4 -d 3 -p ack -e 60 -c 2 -a 0 -i 48 -k RTR 
- -t 61.697840699 -s 4 -d 3 -p ack -e 60 -c 2 -a 0 -i 48 -k RTR
h -t 61.697840699 -s 4 -d 3 -p ack -e 60 -c 2 -a 0 -i 48 -k RTR
+ -t 61.700186699 -s 3 -d 2 -p ack -e 60 -c 2 -a 0 -i 48 -k RTR 
- -t 61.700186699 -s 3 -d 2 -p ack -e 60 -c 2 -a 0 -i 48 -k RTR
h -t 61.700186699 -s 3 -d 2 -p ack -e 60 -c 2 -a 0 -i 48 -k RTR
+ -t 61.702392699 -s 2 -d 1 -p ack -e 60 -c 2 -a 0 -i 48 -k RTR 
- -t 61.702392699 -s 2 -d 1 -p ack -e 60 -c 2 -a 0 -i 48 -k RTR
h -t 61.702392699 -s 2 -d 1 -p ack -e 60 -c 2 -a 0 -i 48 -k RTR
+ -t 61.704418699 -s 1 -d 0 -p ack -e 60 -c 2 -a 0 -i 48 -k RTR 
- -t 61.704418699 -s 1 -d 0 -p ack -e 60 -c 2 -a 0 -i 48 -k RTR
h -t 61.704418699 -s 1 -d 0 -p ack -e 60 -c 2 -a 0 -i 48 -k RTR
r -t 61.706864699 -s 0 -d 0 -p ack -e 60 -c 2 -a 0 -i 48 -k AGT
+ -t 61.706864699 -s 0 -d -1 -p tcp -e 1480 -c 2 -a 0 -i 49 -k AGT 
- -t 61.706864699 -s 0 -d -1 -p tcp -e 1480 -c 2 -a 0 -i 49 -k AGT
h -t 61.706864699 -s 0 -d -1 -p tcp -e 1480 -c 2 -a 0 -i 49 -k AGT
+ -t 61.706864699 -s 0 -d 1 -p tcp -e 1500 -c 2 -a 0 -i 49 -k RTR 
- -t 61.706864699 -s 0 -d 1 -p tcp -e 1500 -c 2 -a 0 -i 49 -k RTR
h -t 61.706864699 -s 0 -d 1 -p tcp -e 1500 -c 2 -a 0 -i 49 -k RTR
+ -t 61.706864699 -s 0 -d -1 -p tcp -e 1480 -c 2 -a 0 -i 50 -k AGT 
- -t 61.706864699 -s 0 -d -1 -p tcp -e 1480 -c 2 -a 0 -i 50 -k AGT
h -t 61.706864699 -s 0 -d -1 -p tcp -e 1480 -c 2 -a 0 -i 50 -k AGT
+ -t 61.706864699 -s 0 -d 1 -p tcp -e 1500 -c 2 -a 0 -i 50 -k RTR 
- -t 61.706864699 -s 0 -d 1 -p tcp -e 1500 -c 2 -a 0 -i 50 -k RTR
h -t 61.706864699 -s 0 -d 1 -p tcp -e 1500 -c 2 -a 0 -i 50 -k RTR
+ -t 61.720890699 -s 1 -d 2 -p tcp -e 1500 -c 2 -a 0 -i 49 -k RTR 
- -t 61.720890699 -s 1 -d 2 -p tcp -e 1500 -c 2 -a 0 -i 49 -k RTR
h -t 61.720890699 -s 1 -d 2 -p tcp -e 1500 -c 2 -a 0 -i 49 -k RTR
+ -t 61.734437366 -s 1 -d 2 -p tcp -e 1500 -c 2 -a 0 -i 50 -k RTR 
- -t 61.734437366 -s 1 -d 2 -p tcp -e 1500 -c 2 -a 0 -i 50 -k RTR
h -t 61.734437366 -s 1 -d 2 -p tcp -e 1500 -c 2 -a 0 -i 50 -k RTR
+ -t 61.748183366 -s 2 -d 3 -p tcp -e 1500 -c 2 -a 0 -i 49 -k RTR 
- -t 61.748183366 -s 2 -d 3 -p tcp -e 1500 -c 2 -a 0 -i 49 -k RTR
h -t 61.748183366 -s 2 -d 3 -p tcp -e 1500 -c 2 -a 0 -i 49 -k RTR
+ -t 61.763136699 -s 3 -d 4 -p tcp -e 1500 -c 2 -a 0 -i 49 -k RTR 
- -t 61.763136699 -s 3 -d 4 -p tcp -e 1500 -c 2 -a 0 -i 49 -k RTR
h -t 61.763136699 -s 3 -d 4 -p tcp -e 1500 -c 2 -a 0 -i 49 -k RTR
r -t 61.776982699 -s 4 -d 4 -p tcp -e 1500 -c 2 -a 0 -i 49 -k AGT
+ -t 61.776982699 -s 4 -d -1 -p ack -e 40 -c 2 -a 0 -i 51 -k AGT 
- -t 61.776982699 -s 4 -d -1 -p ack -e 40 -c 2 -a 0 -i 51 -k AGT
h -t 61.776982699 -s 4 -d -1 -p ack -e 40 -c 2 -a 0 -i 51 -k AGT
+ -t 61.776982699 -s 4 -d 3 -p ack -e 60 -c 2 -a 0 -i 51 -k RTR 
- -t 61.776982699 -s 4 -d 3 -p ack -e 60 -c 2 -a 0 -i 51 -k RTR
h -t 61.776982699 -s 4 -d 3 -p ack -e 60 -c 2 -a 0 -i 51 -k RTR
+ -t 61.780368699 -s 3 -d 2 -p ack -e 60 -c 2 -a 0 -i 51 -k RTR 
- -t 61.780368699 -s 3 -d 2 -p ack -e 60 -c 2 -a 0 -i 51 -k RTR
h -t 61.780368699 -s 3 -d 2 -p ack -e 60 -c 2 -a 0 -i 51 -k RTR
+ -t 61.782414699 -s 2 -d 1 -p ack -e 60 -c 2 -a 0 -i 51 -k RTR 
- -t 61.782414699 -s 2 -d 1 -p ack -e 60 -c 2 -a 0 -i 51 -k RTR
h -t 61.782414699 -s 2 -d 1 -p ack -e 60 -c 2 -a 0 -i 51 -k RTR
+ -t 61.784820699 -s 1 -d 0 -p ack -e 60 -c 2 -a 0 -i 51 -k RTR 
- -t 61.784820699 -s 1 -d 0 -p ack -e 60 -c 2 -a 0 -i 51 -k RTR
h -t 61.784820699 -s 1 -d 0 -p ack -e 60 -c 2 -a 0 -i 51 -k RTR
+ -t 61.798486699 -s 2 -d 3 -p tcp -e 1500 -c 2 -a 0 -i 50 -k RTR 
- -t 61.798486699 -s 2 -d 3 -p tcp -e 1500 -c 2 -a 0 -i 50 -k RTR
h -t 61.798486699 -s 2 -d 3 -p tcp -e 1500 -c 2 -a 0 -i 50 -k RTR
r -t 61.800573366 -s 0 -d 0 -p ack -e 60 -c 2 -a 0 -i 51 -k AGT
+ -t 61.800573366 -s 0 -d -1 -p tcp -e 1480 -c 2 -a 0 -i 52 -k AGT 
- -t 61.800573366 -s 0 -d -1 -p tcp -e 1480 -c 2 -a 0 -i 52 -k AGT
h -t 61.800573366 -s 0 -d -1 -p tcp -e 1480 -c 2 -a 0 -i 52 -k AGT
+ -t 61.800573366 -s 0 -d 1 -p tcp -e 1500 -c 2 -a 0 -i 52 -k RTR 
- -t 61.800573366 -s 0 -d 1 -p tcp -e 1500 -c 2 -a 0 -i 52 -k RTR
h -t 61.800573366 -s 0 -d 1 -p tcp -e 1500 -c 2 -a 0 -i 52 -k RTR
+ -t 61.814099366 -s 1 -d 2 -p tcp -e 1500 -c 2 -a 0 -i 52 -k RTR 
- -t 61.814099366 -s 1 -d 2 -p tcp -e 1500 -c 2 -a 0 -i 52 -k RTR
h -t 61.814099366 -s 1 -d 2 -p tcp -e 1500 -c 2 -a 0 -i 52 -k RTR
+ -t 61.827956032 -s 3 -d 4 -p tcp -e 1500 -c 2 -a 0 -i 50 -k RTR 
- -t 61.827956032 -s 3 -d 4 -p tcp -e 1500 -c 2 -a 0 -i 50 -k RTR
h -t 61.827956032 -s 3 -d 4 -p tcp -e 1500 -c 2 -a 0 -i 50 -k RTR
r -t 61.841942032 -s 4 -d 4 -p tcp -e 1500 -c 2 -a 0 -i 50 -k AGT
+ -t 61.841942032 -s 4 -d -1 -p ack -e 40 -c 2 -a 0 -i 53 -k AGT 
- -t 61.841942032 -s 4 -d -1 -p ack -e 40 -c 2 -a 0 -i 53 -k AGT
h -t 61.841942032 -s 4 -d -1 -p ack -e 40 -c 2 -a 0 -i 53 -k AGT
+ -t 61.841942032 -s 4 -d 3 -p ack -e 60 -c 2 -a 0 -i 53 -k RTR 
- -t 61.841942032 -s 4 -d 3 -p ack -e 60 -c 2 -a 0 -i 53 -k RTR
h -t 61.841942032 -s 4 -d 3 -p ack -e 60 -c 2 -a 0 -i 53 -k RTR
+ -t 61.855578699 -s 2 -d 3 -p tcp -e 1500 -c 2 -a 0 -i 52 -k RTR 
- -t 61.855578699 -s 2 -d 3 -p tcp -e 1500 -c 2 -a 0 -i 52 -k RTR
h -t 61.855578699 -s 2 -d 3 -p tcp -e 1500 -c 2 -a 0 -i 52 -k RTR
+ -t 61.869224699 -s 3 -d 4 -p tcp -e 1500 -c 2 -a 0 -i 52 -k RTR 
- -t 61.869224699 -s 3 -d 4 -p tcp -e 1500 -c 2 -a 0 -i 52 -k RTR
h -t 61.869224699 -s 3 -d 4 -p tcp -e 1500 -c 2 -a 0 -i 52 -k RTR
r -t 61.882870699 -s 4 -d 4 -p tcp -e 1500 -c 2 -a 0 -i 52 -k AGT
+ -t 61.882870699 -s 4 -d -1 -p ack -e 40 -c 2 -a 0 -i 54 -k AGT 
- -t 61.882870699 -s 4 -d -1 -p ack -e 40 -c 2 -a 0 -i 54 -k AGT
h -t 61.882870699 -s 4 -d -1 -p ack -e 40 -c 2 -a 0 -i 54 -k AGT
+ -t 61.882870699 -s 4 -d 3 -p ack -e 60 -c 2 -a 0 -i 54 -k RTR 
- -t 61.882870699 -s 4 -d 3 -p ack -e 60 -c 2 -a 0 -i 54 -k RTR
h -t 61.882870699 -s 4 -d 3 -p ack -e 60 -c 2 -a 0 -i 54 -k RTR
+ -t 61.887656699 -s 3 -d 2 -p ack -e 60 -c 2 -a 0 -i 53 -k RTR 
- -t 61.887656699 -s 3 -d 2 -p ack -e 60 -c 2 -a 0 -i 53 -k RTR
h -t 61.887656699 -s 3 -d 2 -p ack -e 60 -c 2 -a 0 -i 53 -k RTR
+ -t 61.889763366 -s 3 -d 2 -p ack -e 60 -c 2 -a 0 -i 54 -k RTR 
- -t 61.889763366 -s 3 -d 2 -p ack -e 60 -c 2 -a 0 -i 54 -k RTR
h -t 61.889763366 -s 3 -d 2 -p ack -e 60 -c 2 -a 0 -i 54 -k RTR
+ -t 61.892069366 -s 2 -d 1 -p ack -e 60 -c 2 -a 0 -i 53 -k RTR 
- -t 61.892069366 -s 2 -d 1 -p ack -e 60 -c 2 -a 0 -i 53 -k RTR
h -t 61.892069366 -s 2 -d 1 -p ack -e 60 -c 2 -a 0 -i 53 -k RTR
+ -t 61.894296032 -s 2 -d 1 -p ack -e 60 -c 2 -a 0 -i 54 -k RTR 
- -t 61.894296032 -s 2 -d 1 -p ack -e 60 -c 2 -a 0 -i 54 -k RTR
h -t 61.894296032 -s 2 -d 1 -p ack -e 60 -c 2 -a 0 -i 54 -k RTR
+ -t 61.896522032 -s 1 -d 0 -p ack -e 60 -c 2 -a 0 -i 53 -k RTR 
- -t 61.896522032 -s 1 -d 0 -p ack -e 60 -c 2 -a 0 -i 53 -k RTR
h -t 61.896522032 -s 1 -d 0 -p ack -e 60 -c 2 -a 0 -i 53 -k RTR
r -t 61.898788032 -s 0 -d 0 -p ack -e 60 -c 2 -a 0 -i 53 -k AGT
+ -t 61.898788032 -s 0 -d -1 -p tcp -e 1480 -c 2 -a 0 -i 55 -k AGT 
- -t 61.898788032 -s 0 -d -1 -p tcp -e 1480 -c 2 -a 0 -i 55 -k AGT
h -t 61.898788032 -s 0 -d -1 -p tcp -e 1480 -c 2 -a 0 -i 55 -k AGT
+ -t 61.898788032 -s 0 -d 1 -p tcp -e 1500 -c 2 -a 0 -i 55 -k RTR 
- -t 61.898788032 -s 0 -d 1 -p tcp -e 1500 -c 2 -a 0 -i 55 -k RTR
h -t 61.898788032 -s 0 -d 1 -p tcp -e 1500 -c 2 -a 0 -i 55 -k RTR
+ -t 61.912714032 -s 1 -d 2 -p tcp -e 1500 -c 2 -a 0 -i 55 -k RTR 
- -t 61.912714032 -s 1 -d 2 -p tcp -e 1500 -c 2 -a 0 -i 55 -k RTR
h -t 61.912714032 -s 1 -d 2 -p tcp -e 1500 -c 2 -a 0 -i 55 -k RTR
+ -t 61.926380032 -s 2 -d 3 -p tcp -e 1500 -c 2 -a 0 -i 55 -k RTR 
- -t 61.926380032 -s 2 -d 3 -p tcp -e 1500 -c 2 -a 0 -i 55 -k RTR
h -t 61.926380032 -s 2 -d 3 -p tcp -e 1500 -c 2 -a 0 -i 55 -k RTR
+ -t 61.928566032 -s 1 -d 0 -p ack -e 60 -c 2 -a 0 -i 54 -k RTR 
- -t 61.928566032 -s 1 -d 0 -p ack -e 60 -c 2 -a 0 -i 54 -k RTR
h -t 61.928566032 -s 1 -d 0 -p ack -e 60 -c 2 -a 0 -i 54 -k RTR
r -t 61.930632032 -s 0 -d 0 -p ack -e 60 -c 2 -a 0 -i 54 -k AGT
+ -t 61.930632032 -s 0 -d -1 -p tcp -e 1480 -c 2 -a 0 -i 56 -k AGT 
- -t 61.930632032 -s 0 -d -1 -p tcp -e 1480 -c 2 -a 0 -i 56 -k AGT
h -t 61.930632032 -s 0 -d -1 -p tcp -e 1480 -c 2 -a 0 -i 56 -k AGT
+ -t 61.930632032 -s 0 -d 1 -p tcp -e 1500 -c 2 -a 0 -i 56 -k RTR 
- -t 61.930632032 -s 0 -d 1 -p tcp -e 1500 -c 2 -a 0 -i 56 -k RTR
h -t 61.930632032 -s 0 -d 1 -p tcp -e 1500 -c 2 -a 0 -i 56 -k RTR
+ -t 61.930632032 -s 0 -d -1 -p tcp -e 1480 -c 2 -a 0 -i 57 -k AGT 
- -t 61.930632032 -s 0 -d -1 -p tcp -e 1480 -c 2 -a 0 -i 57 -k AGT
h -t 61.930632032 -s 0 -d -1 -p tcp -e 1480 -c 2 -a 0 -i 57 -k AGT
+ -t 61.930632032 -s 0 -d 1 -p tcp -e 1500 -c 2 -a 0 -i 57 -k RTR 
- -t 61.930632032 -s 0 -d 1 -p tcp -e 1500 -c 2 -a 0 -i 57 -k RTR
h -t 61.930632032 -s 0 -d 1 -p tcp -e 1500 -c 2 -a 0 -i 57 -k RTR
+ -t 61.944398032 -s 1 -d 2 -p tcp -e 1500 -c 2 -a 0 -i 56 -k RTR 
- -t 61.944398032 -s 1 -d 2 -p tcp -e 1500 -c 2 -a 0 -i 56 -k RTR
h -t 61.944398032 -s 1 -d 2 -p tcp -e 1500 -c 2 -a 0 -i 56 -k RTR
+ -t 61.958044032 -s 2 -d 3 -p tcp -e 1500 -c 2 -a 0 -i 56 -k RTR 
- -t 61.958044032 -s 2 -d 3 -p tcp -e 1500 -c 2 -a 0 -i 56 -k RTR
h -t 61.958044032 -s 2 -d 3 -p tcp -e 1500 -c 2 -a 0 -i 56 -k RTR
+ -t 61.971870032 -s 3 -d 4 -p tcp -e 1500 -c 2 -a 0 -i 55 -k RTR 
- -t 61.971870032 -s 3 -d 4 -p tcp -e 1500 -c 2 -a 0 -i 55 -k RTR
h -t 61.971870032 -s 3 -d 4 -p tcp -e 1500 -c 2 -a 0 -i 55 -k RTR
+ -t 61.985816699 -s 3 -d 4 -p tcp -e 1500 -c 2 -a 0 -i 56 -k RTR 
- -t 61.985816699 -s 3 -d 4 -p tcp -e 1500 -c 2 -a 0 -i 56 -k RTR
h -t 61.985816699 -s 3 -d 4 -p tcp -e 1500 -c 2 -a 0 -i 56 -k RTR
r -t 61.999442699 -s 4 -d 4 -p tcp -e 1500 -c 2 -a 0 -i 55 -k AGT
+ -t 61.999442699 -s 4 -d -1 -p ack -e 40 -c 2 -a 0 -i 58 -k AGT 
- -t 61.999442699 -s 4 -d -1 -p ack -e 40 -c 2 -a 0 -i 58 -k AGT
h -t 61.999442699 -s 4 -d -1 -p ack -e 40 -c 2 -a 0 -i 58 -k AGT
+ -t 61.999442699 -s 4 -d 3 -p ack -e 60 -c 2 -a 0 -i 58 -k RTR 
- -t 61.999442699 -s 4 -d 3 -p ack -e 60 -c 2 -a 0 -i 58 -k RTR
h -t 61.999442699 -s 4 -d 3 -p ack -e 60 -c 2 -a 0 -i 58 -k RTR
r -t 62.013129366 -s 4 -d 4 -p tcp -e 1500 -c 2 -a 0 -i 56 -k AGT
+ -t 62.013129366 -s 4 -d -1 -p ack -e 40 -c 2 -a 0 -i 59 -k AGT 
- -t 62.013129366 -s 4 -d -1 -p ack -e 40 -c 2 -a 0 -i 59 -k AGT
h -t 62.013129366 -s 4 -d -1 -p ack -e 40 -c 2 -a 0 -i 59 -k AGT
+ -t 62.013129366 -s 4 -d 3 -p ack -e 60 -c 2 -a 0 -i 59 -k RTR 
- -t 62.013129366 -s 4 -d 3 -p ack -e 60 -c 2 -a 0 -i 59 -k RTR
h -t 62.013129366 -s 4 -d 3 -p ack -e 60 -c 2 -a 0 -i 59 -k RTR
+ -t 62.015415366 -s 3 -d 2 -p ack -e 60 -c 2 -a 0 -i 58 -k RTR 
- -t 62.015415366 -s 3 -d 2 -p ack -e 60 -c 2 -a 0 -i 58 -k RTR
h -t 62.015415366 -s 3 -d 2 -p ack -e 60 -c 2 -a 0 -i 58 -k RTR
+ -t 62.024300032 -s 3 -d 2 -p ack -e 60 -c 2 -a 0 -i 59 -k RTR 
- -t 62.024300032 -s 3 -d 2 -p ack -e 60 -c 2 -a 0 -i 59 -k RTR
h -t 62.024300032 -s 3 -d 2 -p ack -e 60 -c 2 -a 0 -i 59 -k RTR
+ -t 62.029013366 -s 1 -d 2 -p tcp -e 1500 -c 2 -a 0 -i 57 -k RTR 
- -t 62.029013366 -s 1 -d 2 -p tcp -e 1500 -c 2 -a 0 -i 57 -k RTR
h -t 62.029013366 -s 1 -d 2 -p tcp -e 1500 -c 2 -a 0 -i 57 -k RTR
+ -t 62.042739366 -s 2 -d 3 -p tcp -e 1500 -c 2 -a 0 -i 57 -k RTR 
- -t 62.042739366 -s 2 -d 3 -p tcp -e 1500 -c 2 -a 0 -i 57 -k RTR
h -t 62.042739366 -s 2 -d 3 -p tcp -e 1500 -c 2 -a 0 -i 57 -k RTR
+ -t 62.056585366 -s 3 -d 4 -p tcp -e 1500 -c 2 -a 0 -i 57 -k RTR 
- -t 62.056585366 -s 3 -d 4 -p tcp -e 1500 -c 2 -a 0 -i 57 -k RTR
h -t 62.056585366 -s 3 -d 4 -p tcp -e 1500 -c 2 -a 0 -i 57 -k RTR
+ -t 62.064311366 -s 2 -d 1 -p ack -e 60 -c 2 -a 0 -i 58 -k RTR 
- -t 62.064311366 -s 2 -d 1 -p ack -e 60 -c 2 -a 0 -i 58 -k RTR
h -t 62.064311366 -s 2 -d 1 -p ack -e 60 -c 2 -a 0 -i 58 -k RTR
+ -t 62.066678032 -s 2 -d 1 -p ack -e 60 -c 2 -a 0 -i 59 -k RTR 
- -t 62.066678032 -s 2 -d 1 -p ack -e 60 -c 2 -a 0 -i 59 -k RTR
h -t 62.066678032 -s 2 -d 1 -p ack -e 60 -c 2 -a 0 -i 59 -k RTR
+ -t 62.068704032 -s 1 -d 0 -p ack -e 60 -c 2 -a 0 -i 58 -k RTR 
- -t 62.068704032 -s 1 -d 0 -p ack -e 60 -c 2 -a 0 -i 58 -k RTR
h -t 62.068704032 -s 1 -d 0 -p ack -e 60 -c 2 -a 0 -i 58 -k RTR
+ -t 62.070890699 -s 1 -d 0 -p ack -e 60 -c 2 -a 0 -i 59 -k RTR 
- -t 62.070890699 -s 1 -d 0 -p ack -e 60 -c 2 -a 0 -i 59 -k RTR
h -t 62.070890699 -s 1 -d 0 -p ack -e 60 -c 2 -a 0 -i 59 -k RTR
r -t 62.073216699 -s 0 -d 0 -p ack -e 60 -c 2 -a 0 -i 58 -k AGT
+ -t 62.073216699 -s 0 -d -1 -p tcp -e 1480 -c 2 -a 0 -i 60 -k AGT 
- -t 62.073216699 -s 0 -d -1 -p tcp -e 1480 -c 2 -a 0 -i 60 -k AGT