s -t 0.000000000 -Hs 0 -Hd -2 -Ni 0 -Nx 0.00 -Ny 0.00 -Nz 0.00 -Ne -1.000000 -Nl AGT -Nw --- -Ma 0 -Md 0 -Ms 0 -Mt 0 -Is 0.0 -Id 4.0 -It tcp -Il 40 -If 0 -Ii 0 -Iv 32 -Pn tcp -Ps 0 -Pa 0 -Pf 0 -Po 0 
r -t 0.000000000 -Hs 0 -Hd -2 -Ni 0 -Nx 0.00 -Ny 0.00 -Nz 0.00 -Ne -1.000000 -Nl RTR -Nw --- -Ma 0 -Md 0 -Ms 0 -Mt 0 -Is 0.0 -Id 4.0 -It tcp -Il 40 -If 0 -Ii 0 -Iv 32 -Pn tcp -Ps 0 -Pa 0 -Pf 0 -Po 0 
s -t 0.031538939 -Hs 1 -Hd -1 -Ni 1 -Nx 200.00 -Ny 0.00 -Nz 0.00 -Ne -1.000000 -Nl RTR -Nw --- -Ma 0 -Md 0 -Ms 0 -Mt 0 -Is 1.255 -Id -1.255 -It message -Il 32 -If 0 -Ii 1 -Iv 32 
r -t 0.032599606 -Hs 0 -Hd -1 -Ni 0 -Nx 0.00 -Ny 0.00 -Nz 0.00 -Ne -1.000000 -Nl RTR -Nw --- -Ma 0 -Md ffffffff -Ms 1 -Mt 800 -Is 1.255 -Id -1.255 -It message -Il 32 -If 0 -Ii 1 -Iv 32 
r -t 0.032599606 -Hs 2 -Hd -1 -Ni 2 -Nx 400.00 -Ny 0.00 -Nz 0.00 -Ne -1.000000 -Nl RTR -Nw --- -Ma 0 -Md ffffffff -Ms 1 -Mt 800 -Is 1.255 -Id -1.255 -It message -Il 32 -If 0 -Ii 1 -Iv 32 
s -t 0.179336133 -Hs 2 -Hd -1 -Ni 2 -Nx 400.00 -Ny 0.00 -Nz 0.00 -Ne -1.000000 -Nl RTR -Nw --- -Ma 0 -Md 0 -Ms 0 -Mt 0 -Is 2.255 -Id -1.255 -It message -Il 32 -If 0 -Ii 2 -Iv 32 
r -t 0.180196800 -Hs 1 -Hd -1 -Ni 1 -Nx 200.00 -Ny 0.00 -Nz 0.00 -Ne -1.000000 -Nl RTR -Nw --- -Ma 0 -Md ffffffff -Ms 2 -Mt 800 -Is 2.255 -Id -1.255 -It message -Il 32 -If 0 -Ii 2 -Iv 32 
r -t 0.180196800 -Hs 3 -Hd -1 -Ni 3 -Nx 600.00 -Ny 0.00 -Nz 0.00 -Ne -1.000000 -Nl RTR -Nw --- -Ma 0 -Md ffffffff -Ms 2 -Mt 800 -Is 2.255 -Id -1.255 -It message -Il 32 -If 0 -Ii 2 -Iv 32 
s -t 0.888747441 -Hs 3 -Hd -1 -Ni 3 -Nx 600.00 -Ny 0.00 -Nz 0.00 -Ne -1.000000 -Nl RTR -Nw --- -Ma 0 -Md 0 -Ms 0 -Mt 0 -Is 3.255 -Id -1.255 -It message -Il 32 -If 0 -Ii 3 -Iv 32 
r -t 0.889808107 -Hs 2 -Hd -1 -Ni 2 -Nx 400.00 -Ny 0.00 -Nz 0.00 -Ne -1.000000 -Nl RTR -Nw --- -Ma 0 -Md ffffffff -Ms 3 -Mt 800 -Is 3.255 -Id -1.255 -It message -Il 32 -If 0 -Ii 3 -Iv 32 
r -t 0.889808107 -Hs 4 -Hd -1 -Ni 4 -Nx 800.00 -Ny 0.00 -Nz 0.00 -Ne -1.000000 -Nl RTR -Nw --- -Ma 0 -Md ffffffff -Ms 3 -Mt 800 -Is 3.255 -Id -1.255 -It message -Il 32 -If 0 -Ii 3 -Iv 32 
s -t 1.113509485 -Hs 0 -Hd -1 -Ni 0 -Nx 0.00 -Ny 0.00 -Nz 0.00 -Ne -1.000000 -Nl RTR -Nw --- -Ma 0 -Md 0 -Ms 0 -Mt 0 -Is 0.255 -Id -1.255 -It message -Il 32 -If 0 -Ii 4 -Iv 32 
r -t 1.114650151 -Hs 1 -Hd -1 -Ni 1 -Nx 200.00 -Ny 0.00 -Nz 0.00 -Ne -1.000000 -Nl RTR -Nw --- -Ma 0 -Md ffffffff -Ms 0 -Mt 800 -Is 0.255 -Id -1.255 -It message -Il 32 -If 0 -Ii 4 -Iv 32 
s -t 1.600891786 -Hs 4 -Hd -1 -Ni 4 -Nx 800.00 -Ny 0.00 -Nz 0.00 -Ne -1.000000 -Nl RTR -Nw --- -Ma 0 -Md 0 -Ms 0 -Mt 0 -Is 4.255 -Id -1.255 -It message -Il 32 -If 0 -Ii 5 -Iv 32 
r -t 1.601952453 -Hs 3 -Hd -1 -Ni 3 -Nx 600.00 -Ny 0.00 -Nz 0.00 -Ne -1.000000 -Nl RTR -Nw --- -Ma 0 -Md ffffffff -Ms 4 -Mt 800 -Is 4.255 -Id -1.255 -It message -Il 32 -If 0 -Ii 5 -Iv 32 
s -t 3.000000000 -Hs 0 -Hd -2 -Ni 0 -Nx 0.00 -Ny 0.00 -Nz 0.00 -Ne -1.000000 -Nl AGT -Nw --- -Ma 0 -Md 0 -Ms 0 -Mt 0 -Is 0.0 -Id 4.0 -It tcp -Il 40 -If 0 -Ii 6 -Iv 32 -Pn tcp -Ps 0 -Pa 0 -Pf 0 -Po 0 
r -t 3.000000000 -Hs 0 -Hd -2 -Ni 0 -Nx 0.00 -Ny 0.00 -Nz 0.00 -Ne -1.000000 -Nl RTR -Nw --- -Ma 0 -Md 0 -Ms 0 -Mt 0 -Is 0.0 -Id 4.0 -It tcp -Il 40 -If 0 -Ii 6 -Iv 32 -Pn tcp -Ps 0 -Pa 0 -Pf 0 -Po 0 
s -t 9.000000000 -Hs 0 -Hd -2 -Ni 0 -Nx 0.00 -Ny 0.00 -Nz 0.00 -Ne -1.000000 -Nl AGT -Nw --- -Ma 0 -Md 0 -Ms 0 -Mt 0 -Is 0.0 -Id 4.0 -It tcp -Il 40 -If 0 -Ii 7 -Iv 32 -Pn tcp -Ps 0 -Pa 0 -Pf 0 -Po 0 
r -t 9.000000000 -Hs 0 -Hd -2 -Ni 0 -Nx 0.00 -Ny 0.00 -Nz 0.00 -Ne -1.000000 -Nl RTR -Nw --- -Ma 0 -Md 0 -Ms 0 -Mt 0 -Is 0.0 -Id 4.0 -It tcp -Il 40 -If 0 -Ii 7 -Iv 32 -Pn tcp -Ps 0 -Pa 0 -Pf 0 -Po 0 
s -t 12.039522674 -Hs 0 -Hd -1 -Ni 0 -Nx 0.00 -Ny 0.00 -Nz 0.00 -Ne -1.000000 -Nl RTR -Nw --- -Ma 0 -Md 0 -Ms 0 -Mt 0 -Is 0.255 -Id -1.255 -It message -Il 32 -If 0 -Ii 8 -Iv 32 
r -t 12.040743341 -Hs 1 -Hd -1 -Ni 1 -Nx 200.00 -Ny 0.00 -Nz 0.00 -Ne -1.000000 -Nl RTR -Nw --- -Ma 0 -Md ffffffff -Ms 0 -Mt 800 -Is 0.255 -Id -1.255 -It message -Il 32 -If 0 -Ii 8 -Iv 32 
s -t 12.041220278 -Hs 2 -Hd -1 -Ni 2 -Nx 400.00 -Ny 0.00 -Nz 0.00 -Ne -1.000000 -Nl RTR -Nw --- -Ma 0 -Md 0 -Ms 0 -Mt 0 -Is 2.255 -Id -1.255 -It message -Il 32 -If 0 -Ii 9 -Iv 32 
r -t 12.042400945 -Hs 1 -Hd -1 -Ni 1 -Nx 200.00 -Ny 0.00 -Nz 0.00 -Ne -1.000000 -Nl RTR -Nw --- -Ma 0 -Md ffffffff -Ms 2 -Mt 800 -Is 2.255 -Id -1.255 -It message -Il 32 -If 0 -Ii 9 -Iv 32 
r -t 12.042400945 -Hs 3 -Hd -1 -Ni 3 -Nx 600.00 -Ny 0.00 -Nz 0.00 -Ne -1.000000 -Nl RTR -Nw --- -Ma 0 -Md ffffffff -Ms 2 -Mt 800 -Is 2.255 -Id -1.255 -It message -Il 32 -If 0 -Ii 9 -Iv 32 
s -t 12.186970289 -Hs 1 -Hd -1 -Ni 1 -Nx 200.00 -Ny 0.00 -Nz 0.00 -Ne -1.000000 -Nl RTR -Nw --- -Ma 0 -Md 0 -Ms 0 -Mt 0 -Is 1.255 -Id -1.255 -It message -Il 32 -If 0 -Ii 10 -Iv 32 
s -t 12.187819119 -Hs 3 -Hd -1 -Ni 3 -Nx 600.00 -Ny 0.00 -Nz 0.00 -Ne -1.000000 -Nl RTR -Nw --- -Ma 0 -Md 0 -Ms 0 -Mt 0 -Is 3.255 -Id -1.255 -It message -Il 32 -If 0 -Ii 11 -Iv 32 
r -t 12.187930956 -Hs 0 -Hd -1 -Ni 0 -Nx 0.00 -Ny 0.00 -Nz 0.00 -Ne -1.000000 -Nl RTR -Nw --- -Ma 0 -Md ffffffff -Ms 1 -Mt 800 -Is 1.255 -Id -1.255 -It message -Il 32 -If 0 -Ii 10 -Iv 32 
r -t 12.187930956 -Hs 2 -Hd -1 -Ni 2 -Nx 400.00 -Ny 0.00 -Nz 0.00 -Ne -1.000000 -Nl RTR -Nw --- -Ma 0 -Md ffffffff -Ms 1 -Mt 800 -Is 1.255 -Id -1.255 -It message -Il 32 -If 0 -Ii 10 -Iv 32 
r -t 12.189146289 -Hs 2 -Hd -1 -Ni 2 -Nx 400.00 -Ny 0.00 -Nz 0.00 -Ne -1.000000 -Nl RTR -Nw --- -Ma 0 -Md ffffffff -Ms 3 -Mt 800 -Is 3.255 -Id -1.255 -It message -Il 32 -If 0 -Ii 11 -Iv 32 
r -t 12.189146289 -Hs 4 -Hd -1 -Ni 4 -Nx 800.00 -Ny 0.00 -Nz 0.00 -Ne -1.000000 -Nl RTR -Nw --- -Ma 0 -Md ffffffff -Ms 3 -Mt 800 -Is 3.255 -Id -1.255 -It message -Il 32 -If 0 -Ii 11 -Iv 32 
s -t 12.561001349 -Hs 3 -Hd -1 -Ni 3 -Nx 600.00 -Ny 0.00 -Nz 0.00 -Ne -1.000000 -Nl RTR -Nw --- -Ma 0 -Md 0 -Ms 0 -Mt 0 -Is 3.255 -Id -1.255 -It message -Il 44 -If 0 -Ii 12 -Iv 32 
r -t 12.562138015 -Hs 2 -Hd -1 -Ni 2 -Nx 400.00 -Ny 0.00 -Nz 0.00 -Ne -1.000000 -Nl RTR -Nw --- -Ma 0 -Md ffffffff -Ms 3 -Mt 800 -Is 3.255 -Id -1.255 -It message -Il 44 -If 0 -Ii 12 -Iv 32 
r -t 12.562138015 -Hs 4 -Hd -1 -Ni 4 -Nx 800.00 -Ny 0.00 -Nz 0.00 -Ne -1.000000 -Nl RTR -Nw --- -Ma 0 -Md ffffffff -Ms 3 -Mt 800 -Is 3.255 -Id -1.255 -It message -Il 44 -If 0 -Ii 12 -Iv 32 
s -t 12.715902450 -Hs 0 -Hd -1 -Ni 0 -Nx 0.00 -Ny 0.00 -Nz 0.00 -Ne -1.000000 -Nl RTR -Nw --- -Ma 0 -Md 0 -Ms 0 -Mt 0 -Is 0.255 -Id -1.255 -It message -Il 44 -If 0 -Ii 13 -Iv 32 
r -t 12.716939116 -Hs 1 -Hd -1 -Ni 1 -Nx 200.00 -Ny 0.00 -Nz 0.00 -Ne -1.000000 -Nl RTR -Nw --- -Ma 0 -Md ffffffff -Ms 0 -Mt 800 -Is 0.255 -Id -1.255 -It message -Il 44 -If 0 -Ii 13 -Iv 32 
s -t 13.035956233 -Hs 2 -Hd -1 -Ni 2 -Nx 400.00 -Ny 0.00 -Nz 0.00 -Ne -1.000000 -Nl RTR -Nw --- -Ma 0 -Md 0 -Ms 0 -Mt 0 -Is 2.255 -Id -1.255 -It message -Il 32 -If 0 -Ii 15 -Iv 32 
r -t 13.037056900 -Hs 1 -Hd -1 -Ni 1 -Nx 200.00 -Ny 0.00 -Nz 0.00 -Ne -1.000000 -Nl RTR -Nw --- -Ma 0 -Md ffffffff -Ms 2 -Mt 800 -Is 2.255 -Id -1.255 -It message -Il 32 -If 0 -Ii 15 -Iv 32 
r -t 13.037056900 -Hs 3 -Hd -1 -Ni 3 -Nx 600.00 -Ny 0.00 -Nz 0.00 -Ne -1.000000 -Nl RTR -Nw --- -Ma 0 -Md ffffffff -Ms 2 -Mt 800 -Is 2.255 -Id -1.255 -It message -Il 32 -If 0 -Ii 15 -Iv 32 
s -t 13.182766737 -Hs 1 -Hd -1 -Ni 1 -Nx 200.00 -Ny 0.00 -Nz 0.00 -Ne -1.000000 -Nl RTR -Nw --- -Ma 0 -Md 0 -Ms 0 -Mt 0 -Is 1.255 -Id -1.255 -It message -Il 32 -If 0 -Ii 16 -Iv 32 
r -t 13.184067404 -Hs 0 -Hd -1 -Ni 0 -Nx 0.00 -Ny 0.00 -Nz 0.00 -Ne -1.000000 -Nl RTR -Nw --- -Ma 0 -Md ffffffff -Ms 1 -Mt 800 -Is 1.255 -Id -1.255 -It message -Il 32 -If 0 -Ii 16 -Iv 32 
r -t 13.184067404 -Hs 2 -Hd -1 -Ni 2 -Nx 400.00 -Ny 0.00 -Nz 0.00 -Ne -1.000000 -Nl RTR -Nw --- -Ma 0 -Md ffffffff -Ms 1 -Mt 800 -Is 1.255 -Id -1.255 -It message -Il 32 -If 0 -Ii 16 -Iv 32 
s -t 13.610719010 -Hs 3 -Hd -1 -Ni 3 -Nx 600.00 -Ny 0.00 -Nz 0.00 -Ne -1.000000 -Nl RTR -Nw --- -Ma 0 -Md 0 -Ms 0 -Mt 0 -Is 3.255 -Id -1.255 -It message -Il 32 -If 0 -Ii 17 -Iv 32 
r -t 13.611859677 -Hs 2 -Hd -1 -Ni 2 -Nx 400.00 -Ny 0.00 -Nz 0.00 -Ne -1.000000 -Nl RTR -Nw --- -Ma 0 -Md ffffffff -Ms 3 -Mt 800 -Is 3.255 -Id -1.255 -It message -Il 32 -If 0 -Ii 17 -Iv 32 
r -t 13.611859677 -Hs 4 -Hd -1 -Ni 4 -Nx 800.00 -Ny 0.00 -Nz 0.00 -Ne -1.000000 -Nl RTR -Nw --- -Ma 0 -Md ffffffff -Ms 3 -Mt 800 -Is 3.255 -Id -1.255 -It message -Il 32 -If 0 -Ii 17 -Iv 32 
s -t 14.344451387 -Hs 1 -Hd -1 -Ni 1 -Nx 200.00 -Ny 0.00 -Nz 0.00 -Ne -1.000000 -Nl RTR -Nw --- -Ma 0 -Md 0 -Ms 0 -Mt 0 -Is 1.255 -Id -1.255 -It message -Il 44 -If 0 -Ii 18 -Iv 32 
r -t 14.345668054 -Hs 0 -Hd -1 -Ni 0 -Nx 0.00 -Ny 0.00 -Nz 0.00 -Ne -1.000000 -Nl RTR -Nw --- -Ma 0 -Md ffffffff -Ms 1 -Mt 800 -Is 1.255 -Id -1.255 -It message -Il 44 -If 0 -Ii 18 -Iv 32 
r -t 14.345668054 -Hs 2 -Hd -1 -Ni 2 -Nx 400.00 -Ny 0.00 -Nz 0.00 -Ne -1.000000 -Nl RTR -Nw --- -Ma 0 -Md ffffffff -Ms 1 -Mt 800 -Is 1.255 -Id -1.255 -It message -Il 44 -If 0 -Ii 18 -Iv 32 
s -t 14.388732063 -Hs 4 -Hd -1 -Ni 4 -Nx 800.00 -Ny 0.00 -Nz 0.00 -Ne -1.000000 -Nl RTR -Nw --- -Ma 0 -Md 0 -Ms 0 -Mt 0 -Is 4.255 -Id -1.255 -It message -Il 32 -If 0 -Ii 19 -Iv 32 
r -t 14.389832730 -Hs 3 -Hd -1 -Ni 3 -Nx 600.00 -Ny 0.00 -Nz 0.00 -Ne -1.000000 -Nl RTR -Nw --- -Ma 0 -Md ffffffff -Ms 4 -Mt 800 -Is 4.255 -Id -1.255 -It message -Il 32 -If 0 -Ii 19 -Iv 32 
s -t 14.569407979 -Hs 2 -Hd -1 -Ni 2 -Nx 400.00 -Ny 0.00 -Nz 0.00 -Ne -1.000000 -Nl RTR -Nw --- -Ma 0 -Md 0 -Ms 0 -Mt 0 -Is 2.255 -Id -1.255 -It message -Il 32 -If 0 -Ii 20 -Iv 32 
r -t 14.570348645 -Hs 1 -Hd -1 -Ni 1 -Nx 200.00 -Ny 0.00 -Nz 0.00 -Ne -1.000000 -Nl RTR -Nw --- -Ma 0 -Md ffffffff -Ms 2 -Mt 800 -Is 2.255 -Id -1.255 -It message -Il 32 -If 0 -Ii 20 -Iv 32 
r -t 14.570348645 -Hs 3 -Hd -1 -Ni 3 -Nx 600.00 -Ny 0.00 -Nz 0.00 -Ne -1.000000 -Nl RTR -Nw --- -Ma 0 -Md ffffffff -Ms 2 -Mt 800 -Is 2.255 -Id -1.255 -It message -Il 32 -If 0 -Ii 20 -Iv 32 
s -t 21.000000000 -Hs 0 -Hd -2 -Ni 0 -Nx 0.00 -Ny 0.00 -Nz 0.00 -Ne -1.000000 -Nl AGT -Nw --- -Ma 0 -Md 0 -Ms 0 -Mt 0 -Is 0.0 -Id 4.0 -It tcp -Il 40 -If 0 -Ii 21 -Iv 32 -Pn tcp -Ps 0 -Pa 0 -Pf 0 -Po 0 
r -t 21.000000000 -Hs 0 -Hd -2 -Ni 0 -Nx 0.00 -Ny 0.00 -Nz 0.00 -Ne -1.000000 -Nl RTR -Nw --- -Ma 0 -Md 0 -Ms 0 -Mt 0 -Is 0.0 -Id 4.0 -It tcp -Il 40 -If 0 -Ii 21 -Iv 32 -Pn tcp -Ps 0 -Pa 0 -Pf 0 -Po 0 
s -t 24.047318162 -Hs 3 -Hd -1 -Ni 3 -Nx 600.00 -Ny 0.00 -Nz 0.00 -Ne -1.000000 -Nl RTR -Nw --- -Ma 0 -Md 0 -Ms 0 -Mt 0 -Is 3.255 -Id -1.255 -It message -Il 32 -If 0 -Ii 22 -Iv 32 
r -t 24.048598829 -Hs 2 -Hd -1 -Ni 2 -Nx 400.00 -Ny 0.00 -Nz 0.00 -Ne -1.000000 -Nl RTR -Nw --- -Ma 0 -Md ffffffff -Ms 3 -Mt 800 -Is 3.255 -Id -1.255 -It message -Il 32 -If 0 -Ii 22 -Iv 32 
r -t 24.048598829 -Hs 4 -Hd -1 -Ni 4 -Nx 800.00 -Ny 0.00 -Nz 0.00 -Ne -1.000000 -Nl RTR -Nw --- -Ma 0 -Md ffffffff -Ms 3 -Mt 800 -Is 3.255 -Id -1.255 -It message -Il 32 -If 0 -Ii 22 -Iv 32 
s -t 24.189120975 -Hs 0 -Hd -1 -Ni 0 -Nx 0.00 -Ny 0.00 -Nz 0.00 -Ne -1.000000 -Nl RTR -Nw --- -Ma 0 -Md 0 -Ms 0 -Mt 0 -Is 0.255 -Id -1.255 -It message -Il 32 -If 0 -Ii 23 -Iv 32 
r -t 24.190021642 -Hs 1 -Hd -1 -Ni 1 -Nx 200.00 -Ny 0.00 -Nz 0.00 -Ne -1.000000 -Nl RTR -Nw --- -Ma 0 -Md ffffffff -Ms 0 -Mt 800 -Is 0.255 -Id -1.255 -It message -Il 32 -If 0 -Ii 23 -Iv 32 
s -t 24.190028291 -Hs 4 -Hd -1 -Ni 4 -Nx 800.00 -Ny 0.00 -Nz 0.00 -Ne -1.000000 -Nl RTR -Nw --- -Ma 0 -Md 0 -Ms 0 -Mt 0 -Is 4.255 -Id -1.255 -It message -Il 44 -If 0 -Ii 24 -Iv 32 
r -t 24.191004957 -Hs 3 -Hd -1 -Ni 3 -Nx 600.00 -Ny 0.00 -Nz 0.00 -Ne -1.000000 -Nl RTR -Nw --- -Ma 0 -Md ffffffff -Ms 4 -Mt 800 -Is 4.255 -Id -1.255 -It message -Il 44 -If 0 -Ii 24 -Iv 32 
s -t 25.192538453 -Hs 0 -Hd -1 -Ni 0 -Nx 0.00 -Ny 0.00 -Nz 0.00 -Ne -1.000000 -Nl RTR -Nw --- -Ma 0 -Md 0 -Ms 0 -Mt 0 -Is 0.255 -Id -1.255 -It message -Il 44 -If 0 -Ii 25 -Iv 32 
r -t 25.193575119 -Hs 1 -Hd -1 -Ni 1 -Nx 200.00 -Ny 0.00 -Nz 0.00 -Ne -1.000000 -Nl RTR -Nw --- -Ma 0 -Md ffffffff -Ms 0 -Mt 800 -Is 0.255 -Id -1.255 -It message -Il 44 -If 0 -Ii 25 -Iv 32 
s -t 25.619879795 -Hs 2 -Hd -1 -Ni 2 -Nx 400.00 -Ny 0.00 -Nz 0.00 -Ne -1.000000 -Nl RTR -Nw --- -Ma 0 -Md 0 -Ms 0 -Mt 0 -Is 2.255 -Id -1.255 -It message -Il 56 -If 0 -Ii 26 -Iv 32 
r -t 25.621012462 -Hs 1 -Hd -1 -Ni 1 -Nx 200.00 -Ny 0.00 -Nz 0.00 -Ne -1.000000 -Nl RTR -Nw --- -Ma 0 -Md ffffffff -Ms 2 -Mt 800 -Is 2.255 -Id -1.255 -It message -Il 56 -If 0 -Ii 26 -Iv 32 
r -t 25.621012462 -Hs 3 -Hd -1 -Ni 3 -Nx 600.00 -Ny 0.00 -Nz 0.00 -Ne -1.000000 -Nl RTR -Nw --- -Ma 0 -Md ffffffff -Ms 2 -Mt 800 -Is 2.255 -Id -1.255 -It message -Il 56 -If 0 -Ii 26 -Iv 32 
s -t 25.701690859 -Hs 1 -Hd -1 -Ni 1 -Nx 200.00 -Ny 0.00 -Nz 0.00 -Ne -1.000000 -Nl RTR -Nw --- -Ma 0 -Md 0 -Ms 0 -Mt 0 -Is 1.255 -Id -1.255 -It message -Il 44 -If 0 -Ii 27 -Iv 32 
r -t 25.702907526 -Hs 0 -Hd -1 -Ni 0 -Nx 0.00 -Ny 0.00 -Nz 0.00 -Ne -1.000000 -Nl RTR -Nw --- -Ma 0 -Md ffffffff -Ms 1 -Mt 800 -Is 1.255 -Id -1.255 -It message -Il 44 -If 0 -Ii 27 -Iv 32 
r -t 25.702907526 -Hs 2 -Hd -1 -Ni 2 -Nx 400.00 -Ny 0.00 -Nz 0.00 -Ne -1.000000 -Nl RTR -Nw --- -Ma 0 -Md ffffffff -Ms 1 -Mt 800 -Is 1.255 -Id -1.255 -It message -Il 44 -If 0 -Ii 27 -Iv 32 
s -t 26.486751818 -Hs 2 -Hd -1 -Ni 2 -Nx 400.00 -Ny 0.00 -Nz 0.00 -Ne -1.000000 -Nl RTR -Nw --- -Ma 0 -Md 0 -Ms 0 -Mt 0 -Is 2.255 -Id -1.255 -It message -Il 56 -If 0 -Ii 28 -Iv 32 
r -t 26.487804485 -Hs 1 -Hd -1 -Ni 1 -Nx 200.00 -Ny 0.00 -Nz 0.00 -Ne -1.000000 -Nl RTR -Nw --- -Ma 0 -Md ffffffff -Ms 2 -Mt 800 -Is 2.255 -Id -1.255 -It message -Il 56 -If 0 -Ii 28 -Iv 32 
r -t 26.487804485 -Hs 3 -Hd -1 -Ni 3 -Nx 600.00 -Ny 0.00 -Nz 0.00 -Ne -1.000000 -Nl RTR -Nw --- -Ma 0 -Md ffffffff -Ms 2 -Mt 800 -Is 2.255 -Id -1.255 -It message -Il 56 -If 0 -Ii 28 -Iv 32 
s -t 27.137875293 -Hs 3 -Hd -1 -Ni 3 -Nx 600.00 -Ny 0.00 -Nz 0.00 -Ne -1.000000 -Nl RTR -Nw --- -Ma 0 -Md 0 -Ms 0 -Mt 0 -Is 3.255 -Id -1.255 -It message -Il 44 -If 0 -Ii 29 -Iv 32 
r -t 27.138951960 -Hs 2 -Hd -1 -Ni 2 -Nx 400.00 -Ny 0.00 -Nz 0.00 -Ne -1.000000 -Nl RTR -Nw --- -Ma 0 -Md ffffffff -Ms 3 -Mt 800 -Is 3.255 -Id -1.255 -It message -Il 44 -If 0 -Ii 29 -Iv 32 
r -t 27.138951960 -Hs 4 -Hd -1 -Ni 4 -Nx 800.00 -Ny 0.00 -Nz 0.00 -Ne -1.000000 -Nl RTR -Nw --- -Ma 0 -Md ffffffff -Ms 3 -Mt 800 -Is 3.255 -Id -1.255 -It message -Il 44 -If 0 -Ii 29 -Iv 32 
s -t 29.181770825 -Hs 4 -Hd -1 -Ni 4 -Nx 800.00 -Ny 0.00 -Nz 0.00 -Ne -1.000000 -Nl RTR -Nw --- -Ma 0 -Md 0 -Ms 0 -Mt 0 -Is 4.255 -Id -1.255 -It message -Il 44 -If 0 -Ii 30 -Iv 32 
r -t 29.182847492 -Hs 3 -Hd -1 -Ni 3 -Nx 600.00 -Ny 0.00 -Nz 0.00 -Ne -1.000000 -Nl RTR -Nw --- -Ma 0 -Md ffffffff -Ms 4 -Mt 800 -Is 4.255 -Id -1.255 -It message -Il 44 -If 0 -Ii 30 -Iv 32 
s -t 36.051816177 -Hs 4 -Hd -1 -Ni 4 -Nx 800.00 -Ny 0.00 -Nz 0.00 -Ne -1.000000 -Nl RTR -Nw --- -Ma 0 -Md 0 -Ms 0 -Mt 0 -Is 4.255 -Id -1.255 -It message -Il 32 -If 0 -Ii 31 -Iv 32 
r -t 36.052776844 -Hs 3 -Hd -1 -Ni 3 -Nx 600.00 -Ny 0.00 -Nz 0.00 -Ne -1.000000 -Nl RTR -Nw --- -Ma 0 -Md ffffffff -Ms 4 -Mt 800 -Is 4.255 -Id -1.255 -It message -Il 32 -If 0 -Ii 31 -Iv 32 
s -t 37.622724652 -Hs 1 -Hd -1 -Ni 1 -Nx 200.00 -Ny 0.00 -Nz 0.00 -Ne -1.000000 -Nl RTR -Nw --- -Ma 0 -Md 0 -Ms 0 -Mt 0 -Is 1.255 -Id -1.255 -It message -Il 80 -If 0 -Ii 32 -Iv 32 
r -t 37.624429319 -Hs 0 -Hd -1 -Ni 0 -Nx 0.00 -Ny 0.00 -Nz 0.00 -Ne -1.000000 -Nl RTR -Nw --- -Ma 0 -Md ffffffff -Ms 1 -Mt 800 -Is 1.255 -Id -1.255 -It message -Il 80 -If 0 -Ii 32 -Iv 32 
s -t 37.624429319 -Hs 0 -Hd 1 -Ni 0 -Nx 0.00 -Ny 0.00 -Nz 0.00 -Ne -1.000000 -Nl RTR -Nw --- -Ma 0 -Md 0 -Ms 0 -Mt 0 -Is 0.0 -Id 4.0 -It tcp -Il 80 -If 0 -Ii 0 -Iv 32 -Pn tcp -Ps 0 -Pa 0 -Pf 0 -Po 0 
s -t 37.624429319 -Hs 0 -Hd 1 -Ni 0 -Nx 0.00 -Ny 0.00 -Nz 0.00 -Ne -1.000000 -Nl RTR -Nw --- -Ma 0 -Md 0 -Ms 0 -Mt 0 -Is 0.0 -Id 4.0 -It tcp -Il 80 -If 0 -Ii 6 -Iv 32 -Pn tcp -Ps 0 -Pa 0 -Pf 0 -Po 0 
d -t 37.624429319 -Hs 0 -Hd 1 -Ni 0 -Nx 0.00 -Ny 0.00 -Nz 0.00 -Ne -1.000000 -Nl IFQ -Nw ARP -Ma 0 -Md 0 -Ms 0 -Mt 800 -Is 0.0 -Id 4.0 -It tcp -Il 80 -If 0 -Ii 0 -Iv 32 -Pn tcp -Ps 0 -Pa 0 -Pf 0 -Po 0 
s -t 37.624429319 -Hs 0 -Hd 1 -Ni 0 -Nx 0.00 -Ny 0.00 -Nz 0.00 -Ne -1.000000 -Nl RTR -Nw --- -Ma 0 -Md 0 -Ms 0 -Mt 0 -Is 0.0 -Id 4.0 -It tcp -Il 80 -If 0 -Ii 7 -Iv 32 -Pn tcp -Ps 0 -Pa 0 -Pf 0 -Po 0 
d -t 37.624429319 -Hs 0 -Hd 1 -Ni 0 -Nx 0.00 -Ny 0.00 -Nz 0.00 -Ne -1.000000 -Nl IFQ -Nw ARP -Ma 0 -Md 0 -Ms 0 -Mt 800 -Is 0.0 -Id 4.0 -It tcp -Il 80 -If 0 -Ii 6 -Iv 32 -Pn tcp -Ps 0 -Pa 0 -Pf 0 -Po 0 
s -t 37.624429319 -Hs 0 -Hd 1 -Ni 0 -Nx 0.00 -Ny 0.00 -Nz 0.00 -Ne -1.000000 -Nl RTR -Nw --- -Ma 0 -Md 0 -Ms 0 -Mt 0 -Is 0.0 -Id 4.0 -It tcp -Il 80 -If 0 -Ii 21 -Iv 32 -Pn tcp -Ps 0 -Pa 0 -Pf 0 -Po 0 
d -t 37.624429319 -Hs 0 -Hd 1 -Ni 0 -Nx 0.00 -Ny 0.00 -Nz 0.00 -Ne -1.000000 -Nl RTR -Nw CBK -Ma 0 -Md 0 -Ms 0 -Mt 800 -Is 0.0 -Id 4.0 -It tcp -Il 80 -If 0 -Ii 7 -Iv 32 -Pn tcp -Ps 0 -Pa 0 -Pf 0 -Po 0 
d -t 37.624429319 -Hs 0 -Hd 1 -Ni 0 -Nx 0.00 -Ny 0.00 -Nz 0.00 -Ne -1.000000 -Nl RTR -Nw CBK -Ma 0 -Md 0 -Ms 0 -Mt 800 -Is 0.0 -Id 4.0 -It tcp -Il 80 -If 0 -Ii 21 -Iv 32 -Pn tcp -Ps 0 -Pa 0 -Pf 0 -Po 0 
r -t 37.624429319 -Hs 2 -Hd -1 -Ni 2 -Nx 400.00 -Ny 0.00 -Nz 0.00 -Ne -1.000000 -Nl RTR -Nw --- -Ma 0 -Md ffffffff -Ms 1 -Mt 800 -Is 1.255 -Id -1.255 -It message -Il 80 -If 0 -Ii 32 -Iv 32 
s -t 38.193695832 -Hs 0 -Hd -1 -Ni 0 -Nx 0.00 -Ny 0.00 -Nz 0.00 -Ne -1.000000 -Nl RTR -Nw --- -Ma 0 -Md 0 -Ms 0 -Mt 0 -Is 0.255 -Id -1.255 -It message -Il 44 -If 0 -Ii 33 -Iv 32 
r -t 38.194632499 -Hs 1 -Hd -1 -Ni 1 -Nx 200.00 -Ny 0.00 -Nz 0.00 -Ne -1.000000 -Nl RTR -Nw --- -Ma 0 -Md ffffffff -Ms 0 -Mt 800 -Is 0.255 -Id -1.255 -It message -Il 44 -If 0 -Ii 33 -Iv 32 
s -t 39.637149146 -Hs 3 -Hd -1 -Ni 3 -Nx 600.00 -Ny 0.00 -Nz 0.00 -Ne -1.000000 -Nl RTR -Nw --- -Ma 0 -Md 0 -Ms 0 -Mt 0 -Is 3.255 -Id -1.255 -It message -Il 68 -If 0 -Ii 35 -Iv 32 
r -t 39.638277812 -Hs 2 -Hd -1 -Ni 2 -Nx 400.00 -Ny 0.00 -Nz 0.00 -Ne -1.000000 -Nl RTR -Nw --- -Ma 0 -Md ffffffff -Ms 3 -Mt 800 -Is 3.255 -Id -1.255 -It message -Il 68 -If 0 -Ii 35 -Iv 32 
r -t 39.638277812 -Hs 4 -Hd -1 -Ni 4 -Nx 800.00 -Ny 0.00 -Nz 0.00 -Ne -1.000000 -Nl RTR -Nw --- -Ma 0 -Md ffffffff -Ms 3 -Mt 800 -Is 3.255 -Id -1.255 -It message -Il 68 -If 0 -Ii 35 -Iv 32 
s -t 39.785497100 -Hs 2 -Hd -1 -Ni 2 -Nx 400.00 -Ny 0.00 -Nz 0.00 -Ne -1.000000 -Nl RTR -Nw --- -Ma 0 -Md 0 -Ms 0 -Mt 0 -Is 2.255 -Id -1.255 -It message -Il 32 -If 0 -Ii 36 -Iv 32 
r -t 39.786797767 -Hs 1 -Hd -1 -Ni 1 -Nx 200.00 -Ny 0.00 -Nz 0.00 -Ne -1.000000 -Nl RTR -Nw --- -Ma 0 -Md ffffffff -Ms 2 -Mt 800 -Is 2.255 -Id -1.255 -It message -Il 32 -If 0 -Ii 36 -Iv 32 
r -t 39.786797767 -Hs 3 -Hd -1 -Ni 3 -Nx 600.00 -Ny 0.00 -Nz 0.00 -Ne -1.000000 -Nl RTR -Nw --- -Ma 0 -Md ffffffff -Ms 2 -Mt 800 -Is 2.255 -Id -1.255 -It message -Il 32 -If 0 -Ii 36 -Iv 32 
s -t 41.802705507 -Hs 4 -Hd -1 -Ni 4 -Nx 800.00 -Ny 0.00 -Nz 0.00 -Ne -1.000000 -Nl RTR -Nw --- -Ma 0 -Md 0 -Ms 0 -Mt 0 -Is 4.255 -Id -1.255 -It message -Il 32 -If 0 -Ii 37 -Iv 32 
r -t 41.803706174 -Hs 3 -Hd -1 -Ni 3 -Nx 600.00 -Ny 0.00 -Nz 0.00 -Ne -1.000000 -Nl RTR -Nw --- -Ma 0 -Md ffffffff -Ms 4 -Mt 800 -Is 4.255 -Id -1.255 -It message -Il 32 -If 0 -Ii 37 -Iv 32 
s -t 45.000000000 -Hs 0 -Hd -2 -Ni 0 -Nx 0.00 -Ny 0.00 -Nz 0.00 -Ne -1.000000 -Nl AGT -Nw --- -Ma 0 -Md 0 -Ms 0 -Mt 0 -Is 0.0 -Id 4.0 -It tcp -Il 40 -If 0 -Ii 38 -Iv 32 -Pn tcp -Ps 0 -Pa 0 -Pf 0 -Po 0 
r -t 45.000000000 -Hs 0 -Hd -2 -Ni 0 -Nx 0.00 -Ny 0.00 -Nz 0.00 -Ne -1.000000 -Nl RTR -Nw --- -Ma 0 -Md 0 -Ms 0 -Mt 0 -Is 0.0 -Id 4.0 -It tcp -Il 40 -If 0 -Ii 38 -Iv 32 -Pn tcp -Ps 0 -Pa 0 -Pf 0 -Po 0 
s -t 45.000000000 -Hs 0 -Hd 1 -Ni 0 -Nx 0.00 -Ny 0.00 -Nz 0.00 -Ne -1.000000 -Nl RTR -Nw --- -Ma 0 -Md 0 -Ms 0 -Mt 0 -Is 0.0 -Id 4.0 -It tcp -Il 60 -If 0 -Ii 38 -Iv 32 -Pn tcp -Ps 0 -Pa 0 -Pf 0 -Po 0 
r -t 45.001962000 -Hs 1 -Hd 1 -Ni 1 -Nx 200.00 -Ny 0.00 -Nz 0.00 -Ne -1.000000 -Nl RTR -Nw --- -Ma 13a -Md 1 -Ms 0 -Mt 800 -Is 0.0 -Id 4.0 -It tcp -Il 60 -If 0 -Ii 38 -Iv 32 -Pn tcp -Ps 0 -Pa 0 -Pf 1 -Po 0 
f -t 45.001962000 -Hs 1 -Hd 2 -Ni 1 -Nx 200.00 -Ny 0.00 -Nz 0.00 -Ne -1.000000 -Nl RTR -Nw --- -Ma 13a -Md 1 -Ms 0 -Mt 800 -Is 0.0 -Id 4.0 -It tcp -Il 60 -If 0 -Ii 38 -Iv 31 -Pn tcp -Ps 0 -Pa 0 -Pf 1 -Po 0 
r -t 45.007521667 -Hs 2 -Hd 2 -Ni 2 -Nx 400.00 -Ny 0.00 -Nz 0.00 -Ne -1.000000 -Nl RTR -Nw --- -Ma 13a -Md 2 -Ms 1 -Mt 800 -Is 0.0 -Id 4.0 -It tcp -Il 60 -If 0 -Ii 38 -Iv 31 -Pn tcp -Ps 0 -Pa 0 -Pf 2 -Po 0 
f -t 45.007521667 -Hs 2 -Hd 3 -Ni 2 -Nx 400.00 -Ny 0.00 -Nz 0.00 -Ne -1.000000 -Nl RTR -Nw --- -Ma 13a -Md 2 -Ms 1 -Mt 800 -Is 0.0 -Id 4.0 -It tcp -Il 60 -If 0 -Ii 38 -Iv 30 -Pn tcp -Ps 0 -Pa 0 -Pf 2 -Po 0 
r -t 45.012661333 -Hs 3 -Hd 3 -Ni 3 -Nx 600.00 -Ny 0.00 -Nz 0.00 -Ne -1.000000 -Nl RTR -Nw --- -Ma 13a -Md 3 -Ms 2 -Mt 800 -Is 0.0 -Id 4.0 -It tcp -Il 60 -If 0 -Ii 38 -Iv 30 -Pn tcp -Ps 0 -Pa 0 -Pf 3 -Po 0 
f -t 45.012661333 -Hs 3 -Hd 4 -Ni 3 -Nx 600.00 -Ny 0.00 -Nz 0.00 -Ne -1.000000 -Nl RTR -Nw --- -Ma 13a -Md 3 -Ms 2 -Mt 800 -Is 0.0 -Id 4.0 -It tcp -Il 60 -If 0 -Ii 38 -Iv 29 -Pn tcp -Ps 0 -Pa 0 -Pf 3 -Po 0 
r -t 45.017401000 -Hs 4 -Hd 4 -Ni 4 -Nx 800.00 -Ny 0.00 -Nz 0.00 -Ne -1.000000 -Nl AGT -Nw --- -Ma 13a -Md 4 -Ms 3 -Mt 800 -Is 0.0 -Id 4.0 -It tcp -Il 60 -If 0 -Ii 38 -Iv 29 -Pn tcp -Ps 0 -Pa 0 -Pf 4 -Po 0 
s -t 45.017401000 -Hs 4 -Hd -2 -Ni 4 -Nx 800.00 -Ny 0.00 -Nz 0.00 -Ne -1.000000 -Nl AGT -Nw --- -Ma 0 -Md 0 -Ms 0 -Mt 0 -Is 4.0 -Id 0.0 -It ack -Il 40 -If 0 -Ii 39 -Iv 32 -Pn tcp -Ps 0 -Pa 0 -Pf 0 -Po 0 
r -t 45.017401000 -Hs 4 -Hd -2 -Ni 4 -Nx 800.00 -Ny 0.00 -Nz 0.00 -Ne -1.000000 -Nl RTR -Nw --- -Ma 0 -Md 0 -Ms 0 -Mt 0 -Is 4.0 -Id 0.0 -It ack -Il 40 -If 0 -Ii 39 -Iv 32 -Pn tcp -Ps 0 -Pa 0 -Pf 0 -Po 0 
s -t 49.625947258 -Hs 0 -Hd -1 -Ni 0 -Nx 0.00 -Ny 0.00 -Nz 0.00 -Ne -1.000000 -Nl RTR -Nw --- -Ma 0 -Md 0 -Ms 0 -Mt 0 -Is 0.255 -Id -1.255 -It message -Il 56 -If 0 -Ii 40 -Iv 32 
r -t 49.627319924 -Hs 1 -Hd -1 -Ni 1 -Nx 200.00 -Ny 0.00 -Nz 0.00 -Ne -1.000000 -Nl RTR -Nw --- -Ma 0 -Md ffffffff -Ms 0 -Mt 800 -Is 0.255 -Id -1.255 -It message -Il 56 -If 0 -Ii 40 -Iv 32 
s -t 49.629831636 -Hs 2 -Hd -1 -Ni 2 -Nx 400.00 -Ny 0.00 -Nz 0.00 -Ne -1.000000 -Nl RTR -Nw --- -Ma 0 -Md 0 -Ms 0 -Mt 0 -Is 2.255 -Id -1.255 -It message -Il 80 -If 0 -Ii 41 -Iv 32 
r -t 49.631536302 -Hs 1 -Hd -1 -Ni 1 -Nx 200.00 -Ny 0.00 -Nz 0.00 -Ne -1.000000 -Nl RTR -Nw --- -Ma 0 -Md ffffffff -Ms 2 -Mt 800 -Is 2.255 -Id -1.255 -It message -Il 80 -If 0 -Ii 41 -Iv 32 
r -t 49.631536302 -Hs 3 -Hd -1 -Ni 3 -Nx 600.00 -Ny 0.00 -Nz 0.00 -Ne -1.000000 -Nl RTR -Nw --- -Ma 0 -Md ffffffff -Ms 2 -Mt 800 -Is 2.255 -Id -1.255 -It message -Il 80 -If 0 -Ii 41 -Iv 32 
s -t 49.896107710 -Hs 0 -Hd -1 -Ni 0 -Nx 0.00 -Ny 0.00 -Nz 0.00 -Ne -1.000000 -Nl RTR -Nw --- -Ma 0 -Md 0 -Ms 0 -Mt 0 -Is 0.255 -Id -1.255 -It message -Il 80 -If 0 -Ii 42 -Iv 32 
r -t 49.897852376 -Hs 1 -Hd -1 -Ni 1 -Nx 200.00 -Ny 0.00 -Nz 0.00 -Ne -1.000000 -Nl RTR -Nw --- -Ma 0 -Md ffffffff -Ms 0 -Mt 800 -Is 0.255 -Id -1.255 -It message -Il 80 -If 0 -Ii 42 -Iv 32 
s -t 51.900378781 -Hs 1 -Hd -1 -Ni 1 -Nx 200.00 -Ny 0.00 -Nz 0.00 -Ne -1.000000 -Nl RTR -Nw --- -Ma 0 -Md 0 -Ms 0 -Mt 0 -Is 1.255 -Id -1.255 -It message -Il 32 -If 0 -Ii 43 -Iv 32 
r -t 51.901199447 -Hs 0 -Hd -1 -Ni 0 -Nx 0.00 -Ny 0.00 -Nz 0.00 -Ne -1.000000 -Nl RTR -Nw --- -Ma 0 -Md ffffffff -Ms 1 -Mt 800 -Is 1.255 -Id -1.255 -It message -Il 32 -If 0 -Ii 43 -Iv 32 
r -t 51.901199447 -Hs 2 -Hd -1 -Ni 2 -Nx 400.00 -Ny 0.00 -Nz 0.00 -Ne -1.000000 -Nl RTR -Nw --- -Ma 0 -Md ffffffff -Ms 1 -Mt 800 -Is 1.255 -Id -1.255 -It message -Il 32 -If 0 -Ii 43 -Iv 32 
s -t 52.470460113 -Hs 3 -Hd -1 -Ni 3 -Nx 600.00 -Ny 0.00 -Nz 0.00 -Ne -1.000000 -Nl RTR -Nw --- -Ma 0 -Md 0 -Ms 0 -Mt 0 -Is 3.255 -Id -1.255 -It message -Il 44 -If 0 -Ii 44 -Iv 32 
r -t 52.471716780 -Hs 2 -Hd -1 -Ni 2 -Nx 400.00 -Ny 0.00 -Nz 0.00 -Ne -1.000000 -Nl RTR -Nw --- -Ma 0 -Md ffffffff -Ms 3 -Mt 800 -Is 3.255 -Id -1.255 -It message -Il 44 -If 0 -Ii 44 -Iv 32 
r -t 52.471716780 -Hs 4 -Hd -1 -Ni 4 -Nx 800.00 -Ny 0.00 -Nz 0.00 -Ne -1.000000 -Nl RTR -Nw --- -Ma 0 -Md ffffffff -Ms 3 -Mt 800 -Is 3.255 -Id -1.255 -It message -Il 44 -If 0 -Ii 44 -Iv 32 
s -t 53.940952308 -Hs 4 -Hd -1 -Ni 4 -Nx 800.00 -Ny 0.00 -Nz 0.00 -Ne -1.000000 -Nl RTR -Nw --- -Ma 0 -Md 0 -Ms 0 -Mt 0 -Is 4.255 -Id -1.255 -It message -Il 56 -If 0 -Ii 45 -Iv 32 
r -t 53.942484975 -Hs 3 -Hd -1 -Ni 3 -Nx 600.00 -Ny 0.00 -Nz 0.00 -Ne -1.000000 -Nl RTR -Nw --- -Ma 0 -Md ffffffff -Ms 4 -Mt 800 -Is 4.255 -Id -1.255 -It message -Il 56 -If 0 -Ii 45 -Iv 32 
s -t 61.631952032 -Hs 3 -Hd -1 -Ni 3 -Nx 600.00 -Ny 0.00 -Nz 0.00 -Ne -1.000000 -Nl RTR -Nw --- -Ma 0 -Md 0 -Ms 0 -Mt 0 -Is 3.255 -Id -1.255 -It message -Il 80 -If 0 -Ii 46 -Iv 32 
r -t 61.633156699 -Hs 2 -Hd -1 -Ni 2 -Nx 400.00 -Ny 0.00 -Nz 0.00 -Ne -1.000000 -Nl RTR -Nw --- -Ma 0 -Md ffffffff -Ms 3 -Mt 800 -Is 3.255 -Id -1.255 -It message -Il 80 -If 0 -Ii 46 -Iv 32 
r -t 61.633156699 -Hs 4 -Hd -1 -Ni 4 -Nx 800.00 -Ny 0.00 -Nz 0.00 -Ne -1.000000 -Nl RTR -Nw --- -Ma 0 -Md ffffffff -Ms 3 -Mt 800 -Is 3.255 -Id -1.255 -It message -Il 80 -If 0 -Ii 46 -Iv 32 
s -t 61.633156699 -Hs 4 -Hd 3 -Ni 4 -Nx 800.00 -Ny 0.00 -Nz 0.00 -Ne -1.000000 -Nl RTR -Nw --- -Ma 0 -Md 0 -Ms 0 -Mt 0 -Is 4.0 -Id 0.0 -It ack -Il 80 -If 0 -Ii 39 -Iv 32 -Pn tcp -Ps 0 -Pa 0 -Pf 0 -Po 0 
r -t 61.635358699 -Hs 3 -Hd 3 -Ni 3 -Nx 600.00 -Ny 0.00 -Nz 0.00 -Ne -1.000000 -Nl RTR -Nw --- -Ma 13a -Md 3 -Ms 4 -Mt 800 -Is 4.0 -Id 0.0 -It ack -Il 80 -If 0 -Ii 39 -Iv 32 -Pn tcp -Ps 0 -Pa 0 -Pf 1 -Po 0 
f -t 61.635358699 -Hs 3 -Hd 2 -Ni 3 -Nx 600.00 -Ny 0.00 -Nz 0.00 -Ne -1.000000 -Nl RTR -Nw --- -Ma 13a -Md 3 -Ms 4 -Mt 800 -Is 4.0 -Id 0.0 -It ack -Il 80 -If 0 -Ii 39 -Iv 31 -Pn tcp -Ps 0 -Pa 0 -Pf 1 -Po 0 
r -t 61.637704699 -Hs 2 -Hd 2 -Ni 2 -Nx 400.00 -Ny 0.00 -Nz 0.00 -Ne -1.000000 -Nl RTR -Nw --- -Ma 13a -Md 2 -Ms 3 -Mt 800 -Is 4.0 -Id 0.0 -It ack -Il 80 -If 0 -Ii 39 -Iv 31 -Pn tcp -Ps 0 -Pa 0 -Pf 2 -Po 0 
f -t 61.637704699 -Hs 2 -Hd 1 -Ni 2 -Nx 400.00 -Ny 0.00 -Nz 0.00 -Ne -1.000000 -Nl RTR -Nw --- -Ma 13a -Md 2 -Ms 3 -Mt 800 -Is 4.0 -Id 0.0 -It ack -Il 80 -If 0 -Ii 39 -Iv 30 -Pn tcp -Ps 0 -Pa 0 -Pf 2 -Po 0 
r -t 61.639910699 -Hs 1 -Hd 1 -Ni 1 -Nx 200.00 -Ny 0.00 -Nz 0.00 -Ne -1.000000 -Nl RTR -Nw --- -Ma 13a -Md 1 -Ms 2 -Mt 800 -Is 4.0 -Id 0.0 -It ack -Il 80 -If 0 -Ii 39 -Iv 30 -Pn tcp -Ps 0 -Pa 0 -Pf 3 -Po 0 
f -t 61.639910699 -Hs 1 -Hd 0 -Ni 1 -Nx 200.00 -Ny 0.00 -Nz 0.00 -Ne -1.000000 -Nl RTR -Nw --- -Ma 13a -Md 1 -Ms 2 -Mt 800 -Is 4.0 -Id 0.0 -It ack -Il 80 -If 0 -Ii 39 -Iv 29 -Pn tcp -Ps 0 -Pa 0 -Pf 3 -Po 0 
r -t 61.642456699 -Hs 0 -Hd 0 -Ni 0 -Nx 0.00 -Ny 0.00 -Nz 0.00 -Ne -1.000000 -Nl AGT -Nw --- -Ma 13a -Md 0 -Ms 1 -Mt 800 -Is 4.0 -Id 0.0 -It ack -Il 80 -If 0 -Ii 39 -Iv 29 -Pn tcp -Ps 0 -Pa 0 -Pf 4 -Po 0 
s -t 61.642456699 -Hs 0 -Hd -2 -Ni 0 -Nx 0.00 -Ny 0.00 -Nz 0.00 -Ne -1.000000 -Nl AGT -Nw --- -Ma 0 -Md 0 -Ms 0 -Mt 0 -Is 0.0 -Id 4.0 -It tcp -Il 1480 -If 0 -Ii 47 -Iv 32 -Pn tcp -Ps 1 -Pa 0 -Pf 0 -Po 0 
r -t 61.642456699 -Hs 0 -Hd -2 -Ni 0 -Nx 0.00 -Ny 0.00 -Nz 0.00 -Ne -1.000000 -Nl RTR -Nw --- -Ma 0 -Md 0 -Ms 0 -Mt 0 -Is 0.0 -Id 4.0 -It tcp -Il 1480 -If 0 -Ii 47 -Iv 32 -Pn tcp -Ps 1 -Pa 0 -Pf 0 -Po 0 
s -t 61.642456699 -Hs 0 -Hd 1 -Ni 0 -Nx 0.00 -Ny 0.00 -Nz 0.00 -Ne -1.000000 -Nl RTR -Nw --- -Ma 0 -Md 0 -Ms 0 -Mt 0 -Is 0.0 -Id 4.0 -It tcp -Il 1500 -If 0 -Ii 47 -Iv 32 -Pn tcp -Ps 1 -Pa 0 -Pf 0 -Po 0 
r -t 61.656422699 -Hs 1 -Hd 1 -Ni 1 -Nx 200.00 -Ny 0.00 -Nz 0.00 -Ne -1.000000 -Nl RTR -Nw --- -Ma 13a -Md 1 -Ms 0 -Mt 800 -Is 0.0 -Id 4.0 -It tcp -Il 1500 -If 0 -Ii 47 -Iv 32 -Pn tcp -Ps 1 -Pa 0 -Pf 1 -Po 0 
f -t 61.656422699 -Hs 1 -Hd 2 -Ni 1 -Nx 200.00 -Ny 0.00 -Nz 0.00 -Ne -1.000000 -Nl RTR -Nw --- -Ma 13a -Md 1 -Ms 0 -Mt 800 -Is 0.0 -Id 4.0 -It tcp -Il 1500 -If 0 -Ii 47 -Iv 31 -Pn tcp -Ps 1 -Pa 0 -Pf 1 -Po 0 
r -t 61.669928699 -Hs 2 -Hd 2 -Ni 2 -Nx 400.00 -Ny 0.00 -Nz 0.00 -Ne -1.000000 -Nl RTR -Nw --- -Ma 13a -Md 2 -Ms 1 -Mt 800 -Is 0.0 -Id 4.0 -It tcp -Il 1500 -If 0 -Ii 47 -Iv 31 -Pn tcp -Ps 1 -Pa 0 -Pf 2 -Po 0 
f -t 61.669928699 -Hs 2 -Hd 3 -Ni 2 -Nx 400.00 -Ny 0.00 -Nz 0.00 -Ne -1.000000 -Nl RTR -Nw --- -Ma 13a -Md 2 -Ms 1 -Mt 800 -Is 0.0 -Id 4.0 -It tcp -Il 1500 -If 0 -Ii 47 -Iv 30 -Pn tcp -Ps 1 -Pa 0 -Pf 2 -Po 0 
r -t 61.683994699 -Hs 3 -Hd 3 -Ni 3 -Nx 600.00 -Ny 0.00 -Nz 0.00 -Ne -1.000000 -Nl RTR -Nw --- -Ma 13a -Md 3 -Ms 2 -Mt 800 -Is 0.0 -Id 4.0 -It tcp -Il 1500 -If 0 -Ii 47 -Iv 30 -Pn tcp -Ps 1 -Pa 0 -Pf 3 -Po 0 
f -t 61.683994699 -Hs 3 -Hd 4 -Ni 3 -Nx 600.00 -Ny 0.00 -Nz 0.00 -Ne -1.000000 -Nl RTR -Nw --- -Ma 13a -Md 3 -Ms 2 -Mt 800 -Is 0.0 -Id 4.0 -It tcp -Il 1500 -If 0 -Ii 47 -Iv 29 -Pn tcp -Ps 1 -Pa 0 -Pf 3 -Po 0 
r -t 61.697840699 -Hs 4 -Hd 4 -Ni 4 -Nx 800.00 -Ny 0.00 -Nz 0.00 -Ne -1.000000 -Nl AGT -Nw --- -Ma 13a -Md 4 -Ms 3 -Mt 800 -Is 0.0 -Id 4.0 -It tcp -Il 1500 -If 0 -Ii 47 -Iv 29 -Pn tcp -Ps 1 -Pa 0 -Pf 4 -Po 0 
s -t 61.697840699 -Hs 4 -Hd -2 -Ni 4 -Nx 800.00 -Ny 0.00 -Nz 0.00 -Ne -1.000000 -Nl AGT -Nw --- -Ma 0 -Md 0 -Ms 0 -Mt 0 -Is 4.0 -Id 0.0 -It ack -Il 40 -If 0 -Ii 48 -Iv 32 -Pn tcp -Ps 1 -Pa 0 -Pf 0 -Po 0 
r -t 61.697840699 -Hs 4 -Hd -2 -Ni 4 -Nx 800.00 -Ny 0.00 -Nz 0.00 -Ne -1.000000 -Nl RTR -Nw --- -Ma 0 -Md 0 -Ms 0 -Mt 0 -Is 4.0 -Id 0.0 -It ack -Il 40 -If 0 -Ii 48 -Iv 32 -Pn tcp -Ps 1 -Pa 0 -Pf 0 -Po 0 
s -t 61.697840699 -Hs 4 -Hd 3 -Ni 4 -Nx 800.00 -Ny 0.00 -Nz 0.00 -Ne -1.000000 -Nl RTR -Nw --- -Ma 0 -Md 0 -Ms 0 -Mt 0 -Is 4.0 -Id 0.0 -It ack -Il 60 -If 0 -Ii 48 -Iv 32 -Pn tcp -Ps 1 -Pa 0 -Pf 0 -Po 0 
r -t 61.700186699 -Hs 3 -Hd 3 -Ni 3 -Nx 600.00 -Ny 0.00 -Nz 0.00 -Ne -1.000000 -Nl RTR -Nw --- -Ma 13a -Md 3 -Ms 4 -Mt 800 -Is 4.0 -Id 0.0 -It ack -Il 60 -If 0 -Ii 48 -Iv 32 -Pn tcp -Ps 1 -Pa 0 -Pf 1 -Po 0 
f -t 61.700186699 -Hs 3 -Hd 2 -Ni 3 -Nx 600.00 -Ny 0.00 -Nz 0.00 -Ne -1.000000 -Nl RTR -Nw --- -Ma 13a -Md 3 -Ms 4 -Mt 800 -Is 4.0 -Id 0.0 -It ack -Il 60 -If 0 -Ii 48 -Iv 31 -Pn tcp -Ps 1 -Pa 0 -Pf 1 -Po 0 
r -t 61.702392699 -Hs 2 -Hd 2 -Ni 2 -Nx 400.00 -Ny 0.00 -Nz 0.00 -Ne -1.000000 -Nl RTR -Nw --- -Ma 13a -Md 2 -Ms 3 -Mt 800 -Is 4.0 -Id 0.0 -It ack -Il 60 -If 0 -Ii 48 -Iv 31 -Pn tcp -Ps 1 -Pa 0 -Pf 2 -Po 0 
f -t 61.702392699 -Hs 2 -Hd 1 -Ni 2 -Nx 400.00 -Ny 0.00 -Nz 0.00 -Ne -1.000000 -Nl RTR -Nw --- -Ma 13a -Md 2 -Ms 3 -Mt 800 -Is 4.0 -Id 0.0 -It ack -Il 60 -If 0 -Ii 48 -Iv 30 -Pn tcp -Ps 1 -Pa 0 -Pf 2 -Po 0 