s 0.033056055 _1_ MAC  --- 0 message 90 [0 ffffffff 1 800] ------- [1:255 -1:255 32 0] 
r 0.033776733 _0_ MAC  --- 0 message 32 [0 ffffffff 1 800] ------- [1:255 -1:255 32 0] 
s 0.178926360 _2_ MAC  --- 1 message 90 [0 ffffffff 2 800] ------- [2:255 -1:255 32 0] 
s 1.113637886 _0_ MAC  --- 2 message 90 [0 ffffffff 0 800] ------- [0:255 -1:255 32 0] 
r 1.114358564 _1_ MAC  --- 2 message 32 [0 ffffffff 0 800] ------- [0:255 -1:255 32 0] 
s 12.042634010 _0_ MAC  --- 3 message 90 [0 ffffffff 0 800] ------- [0:255 -1:255 32 0] 
r 12.043354688 _1_ MAC  --- 3 message 32 [0 ffffffff 0 800] ------- [0:255 -1:255 32 0] 
s 12.523457412 _0_ MAC  --- 4 message 102 [0 ffffffff 0 800] ------- [0:255 -1:255 32 0] 
r 12.524274090 _1_ MAC  --- 4 message 44 [0 ffffffff 0 800] ------- [0:255 -1:255 32 0] 
s 13.826591487 _2_ MAC  --- 6 message 90 [0 ffffffff 2 800] ------- [2:255 -1:255 32 0] 
s 14.284477945 _1_ MAC  --- 7 message 90 [0 ffffffff 1 800] ------- [1:255 -1:255 32 0] 
r 14.285198623 _0_ MAC  --- 7 message 32 [0 ffffffff 1 800] ------- [1:255 -1:255 32 0] 
s 26.807544165 _0_ MAC  --- 8 message 102 [0 ffffffff 0 800] ------- [0:255 -1:255 32 0] 
r 26.808360843 _1_ MAC  --- 8 message 44 [0 ffffffff 0 800] ------- [0:255 -1:255 32 0] 
s 27.021252801 _2_ MAC  --- 9 message 90 [0 ffffffff 2 800] ------- [2:255 -1:255 32 0] 
s 28.683736218 _1_ MAC  --- 10 message 90 [0 ffffffff 1 800] ------- [1:255 -1:255 32 0] 
r 28.684456896 _0_ MAC  --- 10 message 32 [0 ffffffff 1 800] ------- [1:255 -1:255 32 0] 
M 33.00000 0 (83.36, 239.44, 0.00), (89.66, 283.49), 19.15
s 38.677415906 _2_ MAC  --- 11 message 90 [0 ffffffff 2 800] ------- [2:255 -1:255 32 0] 
s 40.590242671 _0_ MAC  --- 12 message 102 [0 ffffffff 0 800] ------- [0:255 -1:255 32 0] 
r 40.591059266 _1_ MAC  --- 12 message 44 [0 ffffffff 0 800] ------- [0:255 -1:255 32 0] 
s 43.478923577 _1_ MAC  --- 13 message 90 [0 ffffffff 1 800] ------- [1:255 -1:255 32 0] 
r 43.479644172 _0_ MAC  --- 13 message 32 [0 ffffffff 1 800] ------- [1:255 -1:255 32 0] 
s 49.971580021 _2_ MAC  --- 14 message 90 [0 ffffffff 2 800] ------- [2:255 -1:255 32 0] 
M 50.00000 2 (591.26, 199.37, 0.00), (369.46, 170.52), 3.37
M 51.00000 1 (257.05, 345.36, 0.00), (221.83, 80.86), 14.91
s 54.354201107 _0_ MAC  --- 15 message 102 [0 ffffffff 0 800] ------- [0:255 -1:255 32 0] 
r 54.355017644 _1_ MAC  --- 15 message 44 [0 ffffffff 0 800] ------- [0:255 -1:255 32 0] 
s 58.017683506 _1_ MAC  --- 16 message 90 [0 ffffffff 1 800] ------- [1:255 -1:255 32 0] 
r 58.018404036 _0_ MAC  --- 16 message 32 [0 ffffffff 1 800] ------- [1:255 -1:255 32 0] 
s 61.325400887 _2_ MAC  --- 17 message 90 [0 ffffffff 2 800] ------- [2:255 -1:255 32 0] 
s 69.154242856 _0_ MAC  --- 18 message 102 [0 ffffffff 0 800] ------- [0:255 -1:255 32 0] 
r 69.155059663 _1_ MAC  --- 18 message 44 [0 ffffffff 0 800] ------- [0:255 -1:255 32 0] 
s 69.940472047 _1_ MAC  --- 19 message 90 [0 ffffffff 1 800] ------- [1:255 -1:255 32 0] 
r 69.941192853 _0_ MAC  --- 19 message 32 [0 ffffffff 1 800] ------- [1:255 -1:255 32 0] 
s 72.765842344 _2_ MAC  --- 20 message 90 [0 ffffffff 2 800] ------- [2:255 -1:255 32 0] 
s 81.984662959 _0_ MAC  --- 21 message 102 [0 ffffffff 0 800] ------- [0:255 -1:255 32 0] 
r 81.985479765 _1_ MAC  --- 21 message 44 [0 ffffffff 0 800] ------- [0:255 -1:255 32 0] 
s 83.915103989 _1_ MAC  --- 22 message 90 [0 ffffffff 1 800] ------- [1:255 -1:255 32 0] 
r 83.915824796 _0_ MAC  --- 22 message 32 [0 ffffffff 1 800] ------- [1:255 -1:255 32 0] 
s 87.016902723 _2_ MAC  --- 23 message 90 [0 ffffffff 2 800] ------- [2:255 -1:255 32 0] 
s 96.165851486 _0_ MAC  --- 24 message 102 [0 ffffffff 0 800] ------- [0:255 -1:255 32 0] 
r 96.166668292 _1_ MAC  --- 24 message 44 [0 ffffffff 0 800] ------- [0:255 -1:255 32 0] 
s 97.212538878 _1_ MAC  --- 25 message 90 [0 ffffffff 1 800] ------- [1:255 -1:255 32 0] 
r 97.213259656 _2_ MAC  --- 25 message 32 [0 ffffffff 1 800] ------- [1:255 -1:255 32 0] 
r 97.213259685 _0_ MAC  --- 25 message 32 [0 ffffffff 1 800] ------- [1:255 -1:255 32 0] 
s 99.513744717 _2_ MAC  --- 26 message 90 [0 ffffffff 2 800] ------- [2:255 -1:255 32 0] 
r 99.514465470 _1_ MAC  --- 26 message 32 [0 ffffffff 2 800] ------- [2:255 -1:255 32 0] 
s 108.793037314 _0_ MAC  --- 27 message 102 [0 ffffffff 0 800] ------- [0:255 -1:255 32 0] 
r 108.793854121 _1_ MAC  --- 27 message 44 [0 ffffffff 0 800] ------- [0:255 -1:255 32 0] 
s 109.214039627 _2_ MAC  --- 28 message 90 [0 ffffffff 2 800] ------- [2:255 -1:255 32 0] 
r 109.214760277 _1_ MAC  --- 28 message 32 [0 ffffffff 2 800] ------- [2:255 -1:255 32 0] 
s 110.884825003 _2_ MAC  --- 29 message 102 [0 ffffffff 2 800] ------- [2:255 -1:255 32 0] 
r 110.885641635 _1_ MAC  --- 29 message 44 [0 ffffffff 2 800] ------- [2:255 -1:255 32 0] 
s 111.768001121 _1_ MAC  --- 31 message 90 [0 ffffffff 1 800] ------- [1:255 -1:255 32 0] 
r 111.768721744 _2_ MAC  --- 31 message 32 [0 ffffffff 1 800] ------- [1:255 -1:255 32 0] 
r 111.768721928 _0_ MAC  --- 31 message 32 [0 ffffffff 1 800] ------- [1:255 -1:255 32 0] 
s 121.993169569 _0_ MAC  --- 32 message 102 [0 ffffffff 0 800] ------- [0:255 -1:255 32 0] 
r 121.993986375 _1_ MAC  --- 32 message 44 [0 ffffffff 0 800] ------- [0:255 -1:255 32 0] 
s 122.580172222 _2_ MAC  --- 33 message 102 [0 ffffffff 2 800] ------- [2:255 -1:255 32 0] 
r 122.580988797 _1_ MAC  --- 33 message 44 [0 ffffffff 2 800] ------- [2:255 -1:255 32 0] 
s 124.608486978 _1_ MAC  --- 34 message 90 [0 ffffffff 1 800] ------- [1:255 -1:255 32 0] 
r 124.609207553 _2_ MAC  --- 34 message 32 [0 ffffffff 1 800] ------- [1:255 -1:255 32 0] 
r 124.609207784 _0_ MAC  --- 34 message 32 [0 ffffffff 1 800] ------- [1:255 -1:255 32 0] 
s 127.936679222 _0_ AGT  --- 35 cbr 512 [0 0 0 0] ------- [0:0 2:0 32 0] [0] 0 3
s 130.844002006 _0_ AGT  --- 36 cbr 512 [0 0 0 0] ------- [0:0 2:0 32 0] [1] 0 3
s 134.712491585 _2_ MAC  --- 37 message 102 [0 ffffffff 2 800] ------- [2:255 -1:255 32 0] 
r 134.713308161 _1_ MAC  --- 37 message 44 [0 ffffffff 2 800] ------- [2:255 -1:255 32 0] 
s 136.002665907 _1_ MAC  --- 38 message 102 [0 ffffffff 1 800] ------- [1:255 -1:255 32 0] 
r 136.003482482 _2_ MAC  --- 38 message 44 [0 ffffffff 1 800] ------- [1:255 -1:255 32 0] 
r 136.003482713 _0_ MAC  --- 38 message 44 [0 ffffffff 1 800] ------- [1:255 -1:255 32 0] 
s 136.164967226 _0_ AGT  --- 39 cbr 512 [0 0 0 0] ------- [0:0 2:0 32 0] [2] 0 3
s 136.610359452 _0_ MAC  --- 40 message 90 [0 ffffffff 0 800] ------- [0:255 -1:255 32 0] 
r 136.611080258 _1_ MAC  --- 40 message 32 [0 ffffffff 0 800] ------- [0:255 -1:255 32 0] 
s 140.004862189 _0_ AGT  --- 41 cbr 512 [0 0 0 0] ------- [0:0 2:0 32 0] [3] 0 3
s 145.784958479 _0_ AGT  --- 42 cbr 512 [0 0 0 0] ------- [0:0 2:0 32 0] [4] 0 3
s 147.242393190 _2_ MAC  --- 43 message 102 [0 ffffffff 2 800] ------- [2:255 -1:255 32 0] 
r 147.243209766 _1_ MAC  --- 43 message 44 [0 ffffffff 2 800] ------- [2:255 -1:255 32 0] 
s 148.115824872 _1_ MAC  --- 44 message 102 [0 ffffffff 1 800] ------- [1:255 -1:255 32 0] 
r 148.116641448 _2_ MAC  --- 44 message 44 [0 ffffffff 1 800] ------- [1:255 -1:255 32 0] 
r 148.116641678 _0_ MAC  --- 44 message 44 [0 ffffffff 1 800] ------- [1:255 -1:255 32 0] 
s 149.945885326 _0_ AGT  --- 46 cbr 512 [0 0 0 0] ------- [0:0 2:0 32 0] [5] 0 3
D 149.945885326 _0_ RTR  IFQ 35 cbr 532 [0 0 0 0] ------- [0:0 2:0 32 0] [0] 0 3
s 150.000000000 _1_ AGT  --- 47 tcp 40 [0 0 0 0] ------- [1:0 2:1 32 0] [0 0] 0 2
s 150.000415000 _1_ MAC  --- 0 ARP 86 [0 ffffffff 1 806] ------- [REQUEST 1/1 0/2]
r 150.001103576 _2_ MAC  --- 0 ARP 28 [0 ffffffff 1 806] ------- [REQUEST 1/1 0/2]
r 150.001103806 _0_ MAC  --- 0 ARP 28 [0 ffffffff 1 806] ------- [REQUEST 1/1 0/2]
s 150.001238576 _2_ MAC  --- 0 RTS 44 [52e 1 2 0] 
r 150.001591152 _1_ MAC  --- 0 RTS 44 [52e 1 2 0] 
s 150.001601152 _1_ MAC  --- 0 CTS 38 [3f4 2 0 0] 
r 150.001905727 _2_ MAC  --- 0 CTS 38 [3f4 2 0 0] 
s 150.001915727 _2_ MAC  --- 0 ARP 86 [13a 1 2 806] ------- [REPLY 2/2 1/1]
r 150.002604303 _1_ MAC  --- 0 ARP 28 [13a 1 2 806] ------- [REPLY 2/2 1/1]
s 150.002614303 _1_ MAC  --- 0 ACK 38 [0 2 0 0] 
r 150.002918879 _2_ MAC  --- 0 ACK 38 [0 2 0 0] 
s 150.003528303 _1_ MAC  --- 0 RTS 44 [62e 2 1 0] 
r 150.003880879 _2_ MAC  --- 0 RTS 44 [62e 2 1 0] 
s 150.003890879 _2_ MAC  --- 0 CTS 38 [4f4 1 0 0] 
r 150.004195455 _1_ MAC  --- 0 CTS 38 [4f4 1 0 0] 
s 150.004205455 _1_ MAC  --- 47 tcp 118 [13a 2 1 800] ------- [1:0 2:1 32 2] [0 0] 0 2
r 150.005150030 _2_ MAC  --- 47 tcp 60 [13a 2 1 800] ------- [1:0 2:1 32 2] [0 0] 1 2
s 150.005160030 _2_ MAC  --- 0 ACK 38 [0 1 0 0] 
r 150.005175030 _2_ AGT  --- 47 tcp 60 [13a 2 1 800] ------- [1:0 2:1 32 2] [0 0] 1 2
s 150.005175030 _2_ AGT  --- 48 ack 40 [0 0 0 0] ------- [2:1 1:0 32 0] [0 0] 0 2
r 150.005464606 _1_ MAC  --- 0 ACK 38 [0 1 0 0] 
s 150.005854030 _2_ MAC  --- 0 RTS 44 [62e 1 2 0] 
r 150.006206606 _1_ MAC  --- 0 RTS 44 [62e 1 2 0] 
s 150.006216606 _1_ MAC  --- 0 CTS 38 [4f4 2 0 0] 
r 150.006521182 _2_ MAC  --- 0 CTS 38 [4f4 2 0 0] 
s 150.006531182 _2_ MAC  --- 48 ack 118 [13a 1 2 800] ------- [2:1 1:0 32 1] [0 0] 0 2
r 150.007475758 _1_ MAC  --- 48 ack 60 [13a 1 2 800] ------- [2:1 1:0 32 1] [0 0] 1 2
s 150.007485758 _1_ MAC  --- 0 ACK 38 [0 2 0 0] 
r 150.007500758 _1_ AGT  --- 48 ack 60 [13a 1 2 800] ------- [2:1 1:0 32 1] [0 0] 1 2
s 150.007500758 _1_ AGT  --- 49 tcp 1500 [0 0 0 0] ------- [1:0 2:1 32 0] [1 0] 0 2
s 150.007500758 _1_ AGT  --- 50 tcp 1500 [0 0 0 0] ------- [1:0 2:1 32 0] [2 0] 0 2
r 150.007790333 _2_ MAC  --- 0 ACK 38 [0 2 0 0] 
s 150.008319758 _1_ MAC  --- 0 RTS 44 [33ce 2 1 0] 
r 150.008672333 _2_ MAC  --- 0 RTS 44 [33ce 2 1 0] 
s 150.008682333 _2_ MAC  --- 0 CTS 38 [3294 1 0 0] 
r 150.008986909 _1_ MAC  --- 0 CTS 38 [3294 1 0 0] 
s 150.008996909 _1_ MAC  --- 49 tcp 1578 [13a 2 1 800] ------- [1:0 2:1 32 2] [1 0] 0 2
r 150.021621485 _2_ MAC  --- 49 tcp 1520 [13a 2 1 800] ------- [1:0 2:1 32 2] [1 0] 1 2
s 150.021631485 _2_ MAC  --- 0 ACK 38 [0 1 0 0] 
r 150.021646485 _2_ AGT  --- 49 tcp 1520 [13a 2 1 800] ------- [1:0 2:1 32 2] [1 0] 1 2
s 150.021646485 _2_ AGT  --- 51 ack 40 [0 0 0 0] ------- [2:1 1:0 32 0] [1 0] 0 2
r 150.021936061 _1_ MAC  --- 0 ACK 38 [0 1 0 0] 
s 150.022486061 _1_ MAC  --- 0 RTS 44 [33ce 2 1 0] 
r 150.022838637 _2_ MAC  --- 0 RTS 44 [33ce 2 1 0] 
s 150.022848637 _2_ MAC  --- 0 CTS 38 [3294 1 0 0] 
r 150.023153212 _1_ MAC  --- 0 CTS 38 [3294 1 0 0] 
s 150.023163212 _1_ MAC  --- 50 tcp 1578 [13a 2 1 800] ------- [1:0 2:1 32 2] [2 0] 0 2
r 150.035787788 _2_ MAC  --- 50 tcp 1520 [13a 2 1 800] ------- [1:0 2:1 32 2] [2 0] 1 2
s 150.035797788 _2_ MAC  --- 0 ACK 38 [0 1 0 0] 
r 150.035812788 _2_ AGT  --- 50 tcp 1520 [13a 2 1 800] ------- [1:0 2:1 32 2] [2 0] 1 2
s 150.035812788 _2_ AGT  --- 52 ack 40 [0 0 0 0] ------- [2:1 1:0 32 0] [2 0] 0 2
r 150.036102364 _1_ MAC  --- 0 ACK 38 [0 1 0 0] 
s 150.036171788 _2_ MAC  --- 0 RTS 44 [62e 1 2 0] 
r 150.036524364 _1_ MAC  --- 0 RTS 44 [62e 1 2 0] 
s 150.036534364 _1_ MAC  --- 0 CTS 38 [4f4 2 0 0] 
r 150.036838940 _2_ MAC  --- 0 CTS 38 [4f4 2 0 0] 
s 150.036848940 _2_ MAC  --- 51 ack 118 [13a 1 2 800] ------- [2:1 1:0 32 1] [1 0] 0 2
r 150.037793515 _1_ MAC  --- 51 ack 60 [13a 1 2 800] ------- [2:1 1:0 32 1] [1 0] 1 2
s 150.037803515 _1_ MAC  --- 0 ACK 38 [0 2 0 0] 
r 150.037818515 _1_ AGT  --- 51 ack 60 [13a 1 2 800] ------- [2:1 1:0 32 1] [1 0] 1 2
s 150.037818515 _1_ AGT  --- 53 tcp 1500 [0 0 0 0] ------- [1:0 2:1 32 0] [3 0] 0 2
s 150.037818515 _1_ AGT  --- 54 tcp 1500 [0 0 0 0] ------- [1:0 2:1 32 0] [4 0] 0 2
r 150.038108091 _2_ MAC  --- 0 ACK 38 [0 2 0 0] 
s 150.038217515 _1_ MAC  --- 0 RTS 44 [33ce 2 1 0] 
r 150.038570091 _2_ MAC  --- 0 RTS 44 [33ce 2 1 0] 
s 150.038580091 _2_ MAC  --- 0 CTS 38 [3294 1 0 0] 
r 150.038884667 _1_ MAC  --- 0 CTS 38 [3294 1 0 0] 
s 150.038894667 _1_ MAC  --- 53 tcp 1578 [13a 2 1 800] ------- [1:0 2:1 32 2] [3 0] 0 2
r 150.051519243 _2_ MAC  --- 53 tcp 1520 [13a 2 1 800] ------- [1:0 2:1 32 2] [3 0] 1 2
s 150.051529243 _2_ MAC  --- 0 ACK 38 [0 1 0 0] 
r 150.051544243 _2_ AGT  --- 53 tcp 1520 [13a 2 1 800] ------- [1:0 2:1 32 2] [3 0] 1 2
s 150.051544243 _2_ AGT  --- 55 ack 40 [0 0 0 0] ------- [2:1 1:0 32 0] [3 0] 0 2
r 150.051833819 _1_ MAC  --- 0 ACK 38 [0 1 0 0] 
s 150.051883819 _1_ MAC  --- 0 RTS 44 [33ce 2 1 0] 
r 150.052236394 _2_ MAC  --- 0 RTS 44 [33ce 2 1 0] 
s 150.052246394 _2_ MAC  --- 0 CTS 38 [3294 1 0 0] 
r 150.052550970 _1_ MAC  --- 0 CTS 38 [3294 1 0 0] 
s 150.052560970 _1_ MAC  --- 54 tcp 1578 [13a 2 1 800] ------- [1:0 2:1 32 2] [4 0] 0 2
r 150.065185546 _2_ MAC  --- 54 tcp 1520 [13a 2 1 800] ------- [1:0 2:1 32 2] [4 0] 1 2
s 150.065195546 _2_ MAC  --- 0 ACK 38 [0 1 0 0] 
r 150.065210546 _2_ AGT  --- 54 tcp 1520 [13a 2 1 800] ------- [1:0 2:1 32 2] [4 0] 1 2
s 150.065210546 _2_ AGT  --- 56 ack 40 [0 0 0 0] ------- [2:1 1:0 32 0] [4 0] 0 2
r 150.065500122 _1_ MAC  --- 0 ACK 38 [0 1 0 0] 
s 150.066089546 _2_ MAC  --- 0 RTS 44 [62e 1 2 0] 
r 150.066442122 _1_ MAC  --- 0 RTS 44 [62e 1 2 0] 
s 150.066452122 _1_ MAC  --- 0 CTS 38 [4f4 2 0 0] 
r 150.066756697 _2_ MAC  --- 0 CTS 38 [4f4 2 0 0] 
s 150.066766697 _2_ MAC  --- 52 ack 118 [13a 1 2 800] ------- [2:1 1:0 32 1] [2 0] 0 2
r 150.067711273 _1_ MAC  --- 52 ack 60 [13a 1 2 800] ------- [2:1 1:0 32 1] [2 0] 1 2
s 150.067721273 _1_ MAC  --- 0 ACK 38 [0 2 0 0] 
r 150.067736273 _1_ AGT  --- 52 ack 60 [13a 1 2 800] ------- [2:1 1:0 32 1] [2 0] 1 2
s 150.067736273 _1_ AGT  --- 57 tcp 1500 [0 0 0 0] ------- [1:0 2:1 32 0] [5 0] 0 2
s 150.067736273 _1_ AGT  --- 58 tcp 1500 [0 0 0 0] ------- [1:0 2:1 32 0] [6 0] 0 2
r 150.068025849 _2_ MAC  --- 0 ACK 38 [0 2 0 0] 
s 150.068095273 _1_ MAC  --- 0 RTS 44 [33ce 2 1 0] 
r 150.068447849 _2_ MAC  --- 0 RTS 44 [33ce 2 1 0] 
s 150.068457849 _2_ MAC  --- 0 CTS 38 [3294 1 0 0] 
r 150.068762425 _1_ MAC  --- 0 CTS 38 [3294 1 0 0] 
s 150.068772425 _1_ MAC  --- 57 tcp 1578 [13a 2 1 800] ------- [1:0 2:1 32 2] [5 0] 0 2
r 150.081397000 _2_ MAC  --- 57 tcp 1520 [13a 2 1 800] ------- [1:0 2:1 32 2] [5 0] 1 2
s 150.081407000 _2_ MAC  --- 0 ACK 38 [0 1 0 0] 
r 150.081422000 _2_ AGT  --- 57 tcp 1520 [13a 2 1 800] ------- [1:0 2:1 32 2] [5 0] 1 2
s 150.081422000 _2_ AGT  --- 59 ack 40 [0 0 0 0] ------- [2:1 1:0 32 0] [5 0] 0 2
r 150.081711576 _1_ MAC  --- 0 ACK 38 [0 1 0 0] 
s 150.082061000 _2_ MAC  --- 0 RTS 44 [62e 1 2 0] 
r 150.082413576 _1_ MAC  --- 0 RTS 44 [62e 1 2 0] 
s 150.082423576 _1_ MAC  --- 0 CTS 38 [4f4 2 0 0] 
r 150.082728152 _2_ MAC  --- 0 CTS 38 [4f4 2 0 0] 
s 150.082738152 _2_ MAC  --- 55 ack 118 [13a 1 2 800] ------- [2:1 1:0 32 1] [3 0] 0 2
r 150.083682728 _1_ MAC  --- 55 ack 60 [13a 1 2 800] ------- [2:1 1:0 32 1] [3 0] 1 2
s 150.083692728 _1_ MAC  --- 0 ACK 38 [0 2 0 0] 
r 150.083707728 _1_ AGT  --- 55 ack 60 [13a 1 2 800] ------- [2:1 1:0 32 1] [3 0] 1 2
s 150.083707728 _1_ AGT  --- 60 tcp 1500 [0 0 0 0] ------- [1:0 2:1 32 0] [7 0] 0 2
s 150.083707728 _1_ AGT  --- 61 tcp 1500 [0 0 0 0] ------- [1:0 2:1 32 0] [8 0] 0 2
r 150.083997304 _2_ MAC  --- 0 ACK 38 [0 2 0 0] 
s 150.084107304 _2_ MAC  --- 0 RTS 44 [62e 1 2 0] 
r 150.084459879 _1_ MAC  --- 0 RTS 44 [62e 1 2 0] 
s 150.084469879 _1_ MAC  --- 0 CTS 38 [4f4 2 0 0] 
r 150.084774455 _2_ MAC  --- 0 CTS 38 [4f4 2 0 0] 
s 150.084784455 _2_ MAC  --- 56 ack 118 [13a 1 2 800] ------- [2:1 1:0 32 1] [4 0] 0 2
r 150.085729031 _1_ MAC  --- 56 ack 60 [13a 1 2 800] ------- [2:1 1:0 32 1] [4 0] 1 2
s 150.085739031 _1_ MAC  --- 0 ACK 38 [0 2 0 0] 
r 150.085754031 _1_ AGT  --- 56 ack 60 [13a 1 2 800] ------- [2:1 1:0 32 1] [4 0] 1 2
s 150.085754031 _1_ AGT  --- 62 tcp 1500 [0 0 0 0] ------- [1:0 2:1 32 0] [9 0] 0 2
s 150.085754031 _1_ AGT  --- 63 tcp 1500 [0 0 0 0] ------- [1:0 2:1 32 0] [10 0] 0 2
r 150.086043607 _2_ MAC  --- 0 ACK 38 [0 2 0 0] 
s 150.086113031 _1_ MAC  --- 0 RTS 44 [33ce 2 1 0] 
r 150.086465607 _2_ MAC  --- 0 RTS 44 [33ce 2 1 0] 
s 150.086475607 _2_ MAC  --- 0 CTS 38 [3294 1 0 0] 
r 150.086780182 _1_ MAC  --- 0 CTS 38 [3294 1 0 0] 
s 150.086790182 _1_ MAC  --- 58 tcp 1578 [13a 2 1 800] ------- [1:0 2:1 32 2] [6 0] 0 2
r 150.099414758 _2_ MAC  --- 58 tcp 1520 [13a 2 1 800] ------- [1:0 2:1 32 2] [6 0] 1 2
s 150.099424758 _2_ MAC  --- 0 ACK 38 [0 1 0 0] 
r 150.099439758 _2_ AGT  --- 58 tcp 1520 [13a 2 1 800] ------- [1:0 2:1 32 2] [6 0] 1 2
s 150.099439758 _2_ AGT  --- 64 ack 40 [0 0 0 0] ------- [2:1 1:0 32 0] [6 0] 0 2
r 150.099729334 _1_ MAC  --- 0 ACK 38 [0 1 0 0] 
s 150.100058758 _2_ MAC  --- 0 RTS 44 [62e 1 2 0] 
r 150.100411334 _1_ MAC  --- 0 RTS 44 [62e 1 2 0] 
s 150.100421334 _1_ MAC  --- 0 CTS 38 [4f4 2 0 0] 
r 150.100725910 _2_ MAC  --- 0 CTS 38 [4f4 2 0 0] 
s 150.100735910 _2_ MAC  --- 59 ack 118 [13a 1 2 800] ------- [2:1 1:0 32 1] [5 0] 0 2
r 150.101680485 _1_ MAC  --- 59 ack 60 [13a 1 2 800] ------- [2:1 1:0 32 1] [5 0] 1 2
s 150.101690485 _1_ MAC  --- 0 ACK 38 [0 2 0 0] 
r 150.101705485 _1_ AGT  --- 59 ack 60 [13a 1 2 800] ------- [2:1 1:0 32 1] [5 0] 1 2
s 150.101705485 _1_ AGT  --- 65 tcp 1500 [0 0 0 0] ------- [1:0 2:1 32 0] [11 0] 0 2
s 150.101705485 _1_ AGT  --- 66 tcp 1500 [0 0 0 0] ------- [1:0 2:1 32 0] [12 0] 0 2
r 150.101995061 _2_ MAC  --- 0 ACK 38 [0 2 0 0] 
s 150.102164485 _1_ MAC  --- 0 RTS 44 [33ce 2 1 0] 
s 150.102165061 _2_ MAC  --- 0 RTS 44 [62e 1 2 0] 
s 150.103231061 _2_ MAC  --- 0 RTS 44 [62e 1 2 0] 
r 150.103583637 _1_ MAC  --- 0 RTS 44 [62e 1 2 0] 
s 150.103593637 _1_ MAC  --- 0 CTS 38 [4f4 2 0 0] 
r 150.103898213 _2_ MAC  --- 0 CTS 38 [4f4 2 0 0] 
s 150.103908213 _2_ MAC  --- 64 ack 118 [13a 1 2 800] ------- [2:1 1:0 32 1] [6 0] 0 2
r 150.104852789 _1_ MAC  --- 64 ack 60 [13a 1 2 800] ------- [2:1 1:0 32 1] [6 0] 1 2
s 150.104862789 _1_ MAC  --- 0 ACK 38 [0 2 0 0] 
r 150.104877789 _1_ AGT  --- 64 ack 60 [13a 1 2 800] ------- [2:1 1:0 32 1] [6 0] 1 2
s 150.104877789 _1_ AGT  --- 67 tcp 1500 [0 0 0 0] ------- [1:0 2:1 32 0] [13 0] 0 2
s 150.104877789 _1_ AGT  --- 68 tcp 1500 [0 0 0 0] ------- [1:0 2:1 32 0] [14 0] 0 2
r 150.105167364 _2_ MAC  --- 0 ACK 38 [0 2 0 0] 
s 150.105896789 _1_ MAC  --- 0 RTS 44 [33ce 2 1 0] 
r 150.106249364 _2_ MAC  --- 0 RTS 44 [33ce 2 1 0] 
s 150.106259364 _2_ MAC  --- 0 CTS 38 [3294 1 0 0] 
r 150.106563940 _1_ MAC  --- 0 CTS 38 [3294 1 0 0] 
s 150.106573940 _1_ MAC  --- 60 tcp 1578 [13a 2 1 800] ------- [1:0 2:1 32 2] [7 0] 0 2
r 150.119198516 _2_ MAC  --- 60 tcp 1520 [13a 2 1 800] ------- [1:0 2:1 32 2] [7 0] 1 2
s 150.119208516 _2_ MAC  --- 0 ACK 38 [0 1 0 0] 
r 150.119223516 _2_ AGT  --- 60 tcp 1520 [13a 2 1 800] ------- [1:0 2:1 32 2] [7 0] 1 2
s 150.119223516 _2_ AGT  --- 69 ack 40 [0 0 0 0] ------- [2:1 1:0 32 0] [7 0] 0 2
r 150.119513092 _1_ MAC  --- 0 ACK 38 [0 1 0 0] 
s 150.119642516 _2_ MAC  --- 0 RTS 44 [62e 1 2 0] 
r 150.119995092 _1_ MAC  --- 0 RTS 44 [62e 1 2 0] 
s 150.120005092 _1_ MAC  --- 0 CTS 38 [4f4 2 0 0] 
r 150.120309667 _2_ MAC  --- 0 CTS 38 [4f4 2 0 0] 
s 150.120319667 _2_ MAC  --- 69 ack 118 [13a 1 2 800] ------- [2:1 1:0 32 1] [7 0] 0 2
r 150.121264243 _1_ MAC  --- 69 ack 60 [13a 1 2 800] ------- [2:1 1:0 32 1] [7 0] 1 2
s 150.121274243 _1_ MAC  --- 0 ACK 38 [0 2 0 0] 
r 150.121289243 _1_ AGT  --- 69 ack 60 [13a 1 2 800] ------- [2:1 1:0 32 1] [7 0] 1 2
s 150.121289243 _1_ AGT  --- 70 tcp 1500 [0 0 0 0] ------- [1:0 2:1 32 0] [15 0] 0 2
s 150.121289243 _1_ AGT  --- 71 tcp 1500 [0 0 0 0] ------- [1:0 2:1 32 0] [16 0] 0 2
r 150.121578819 _2_ MAC  --- 0 ACK 38 [0 2 0 0] 
s 150.122108243 _1_ MAC  --- 0 RTS 44 [33ce 2 1 0] 
r 150.122460819 _2_ MAC  --- 0 RTS 44 [33ce 2 1 0] 
s 150.122470819 _2_ MAC  --- 0 CTS 38 [3294 1 0 0] 
r 150.122775395 _1_ MAC  --- 0 CTS 38 [3294 1 0 0] 
s 150.122785395 _1_ MAC  --- 61 tcp 1578 [13a 2 1 800] ------- [1:0 2:1 32 2] [8 0] 0 2
r 150.135409971 _2_ MAC  --- 61 tcp 1520 [13a 2 1 800] ------- [1:0 2:1 32 2] [8 0] 1 2
s 150.135419971 _2_ MAC  --- 0 ACK 38 [0 1 0 0] 
r 150.135434971 _2_ AGT  --- 61 tcp 1520 [13a 2 1 800] ------- [1:0 2:1 32 2] [8 0] 1 2
s 150.135434971 _2_ AGT  --- 72 ack 40 [0 0 0 0] ------- [2:1 1:0 32 0] [8 0] 0 2
r 150.135724546 _1_ MAC  --- 0 ACK 38 [0 1 0 0] 
s 150.135934546 _1_ MAC  --- 0 RTS 44 [33ce 2 1 0] 
r 150.136287122 _2_ MAC  --- 0 RTS 44 [33ce 2 1 0] 
s 150.136297122 _2_ MAC  --- 0 CTS 38 [3294 1 0 0] 
r 150.136601698 _1_ MAC  --- 0 CTS 38 [3294 1 0 0] 
s 150.136611698 _1_ MAC  --- 62 tcp 1578 [13a 2 1 800] ------- [1:0 2:1 32 2] [9 0] 0 2
r 150.149236274 _2_ MAC  --- 62 tcp 1520 [13a 2 1 800] ------- [1:0 2:1 32 2] [9 0] 1 2
s 150.149246274 _2_ MAC  --- 0 ACK 38 [0 1 0 0] 
r 150.149261274 _2_ AGT  --- 62 tcp 1520 [13a 2 1 800] ------- [1:0 2:1 32 2] [9 0] 1 2
s 150.149261274 _2_ AGT  --- 73 ack 40 [0 0 0 0] ------- [2:1 1:0 32 0] [9 0] 0 2
r 150.149550849 _1_ MAC  --- 0 ACK 38 [0 1 0 0] 
s 150.149780274 _2_ MAC  --- 0 RTS 44 [62e 1 2 0] 
r 150.150132849 _1_ MAC  --- 0 RTS 44 [62e 1 2 0] 
s 150.150142849 _1_ MAC  --- 0 CTS 38 [4f4 2 0 0] 
r 150.150447425 _2_ MAC  --- 0 CTS 38 [4f4 2 0 0] 
s 150.150457425 _2_ MAC  --- 72 ack 118 [13a 1 2 800] ------- [2:1 1:0 32 1] [8 0] 0 2
r 150.151402001 _1_ MAC  --- 72 ack 60 [13a 1 2 800] ------- [2:1 1:0 32 1] [8 0] 1 2
s 150.151412001 _1_ MAC  --- 0 ACK 38 [0 2 0 0] 
r 150.151427001 _1_ AGT  --- 72 ack 60 [13a 1 2 800] ------- [2:1 1:0 32 1] [8 0] 1 2
s 150.151427001 _1_ AGT  --- 74 tcp 1500 [0 0 0 0] ------- [1:0 2:1 32 0] [17 0] 0 2
s 150.151427001 _1_ AGT  --- 75 tcp 1500 [0 0 0 0] ------- [1:0 2:1 32 0] [18 0] 0 2
r 150.151716577 _2_ MAC  --- 0 ACK 38 [0 2 0 0] 
s 150.151866577 _2_ MAC  --- 0 RTS 44 [62e 1 2 0] 
r 150.152219152 _1_ MAC  --- 0 RTS 44 [62e 1 2 0] 
s 150.152229152 _1_ MAC  --- 0 CTS 38 [4f4 2 0 0] 
r 150.152533728 _2_ MAC  --- 0 CTS 38 [4f4 2 0 0] 
s 150.152543728 _2_ MAC  --- 73 ack 118 [13a 1 2 800] ------- [2:1 1:0 32 1] [9 0] 0 2
r 150.153488304 _1_ MAC  --- 73 ack 60 [13a 1 2 800] ------- [2:1 1:0 32 1] [9 0] 1 2
s 150.153498304 _1_ MAC  --- 0 ACK 38 [0 2 0 0] 
r 150.153513304 _1_ AGT  --- 73 ack 60 [13a 1 2 800] ------- [2:1 1:0 32 1] [9 0] 1 2
s 150.153513304 _1_ AGT  --- 76 tcp 1500 [0 0 0 0] ------- [1:0 2:1 32 0] [19 0] 0 2
s 150.153513304 _1_ AGT  --- 77 tcp 1500 [0 0 0 0] ------- [1:0 2:1 32 0] [20 0] 0 2
r 150.153802880 _2_ MAC  --- 0 ACK 38 [0 2 0 0] 
s 150.153932304 _1_ MAC  --- 0 RTS 44 [33ce 2 1 0] 
r 150.154284880 _2_ MAC  --- 0 RTS 44 [33ce 2 1 0] 
s 150.154294880 _2_ MAC  --- 0 CTS 38 [3294 1 0 0] 
r 150.154599456 _1_ MAC  --- 0 CTS 38 [3294 1 0 0] 
s 150.154609456 _1_ MAC  --- 63 tcp 1578 [13a 2 1 800] ------- [1:0 2:1 32 2] [10 0] 0 2
r 150.167234031 _2_ MAC  --- 63 tcp 1520 [13a 2 1 800] ------- [1:0 2:1 32 2] [10 0] 1 2
s 150.167244031 _2_ MAC  --- 0 ACK 38 [0 1 0 0] 
r 150.167259031 _2_ AGT  --- 63 tcp 1520 [13a 2 1 800] ------- [1:0 2:1 32 2] [10 0] 1 2
s 150.167259031 _2_ AGT  --- 78 ack 40 [0 0 0 0] ------- [2:1 1:0 32 0] [10 0] 0 2
r 150.167548607 _1_ MAC  --- 0 ACK 38 [0 1 0 0] 
s 150.167738031 _2_ MAC  --- 0 RTS 44 [62e 1 2 0] 
r 150.168090607 _1_ MAC  --- 0 RTS 44 [62e 1 2 0] 
s 150.168100607 _1_ MAC  --- 0 CTS 38 [4f4 2 0 0] 
r 150.168405183 _2_ MAC  --- 0 CTS 38 [4f4 2 0 0] 
s 150.168415183 _2_ MAC  --- 78 ack 118 [13a 1 2 800] ------- [2:1 1:0 32 1] [10 0] 0 2
r 150.169359759 _1_ MAC  --- 78 ack 60 [13a 1 2 800] ------- [2:1 1:0 32 1] [10 0] 1 2
s 150.169369759 _1_ MAC  --- 0 ACK 38 [0 2 0 0] 
r 150.169384759 _1_ AGT  --- 78 ack 60 [13a 1 2 800] ------- [2:1 1:0 32 1] [10 0] 1 2
s 150.169384759 _1_ AGT  --- 79 tcp 1500 [0 0 0 0] ------- [1:0 2:1 32 0] [21 0] 0 2
s 150.169384759 _1_ AGT  --- 80 tcp 1500 [0 0 0 0] ------- [1:0 2:1 32 0] [22 0] 0 2
r 150.169674334 _2_ MAC  --- 0 ACK 38 [0 2 0 0] 
s 150.170103759 _1_ MAC  --- 0 RTS 44 [33ce 2 1 0] 
r 150.170456334 _2_ MAC  --- 0 RTS 44 [33ce 2 1 0] 
s 150.170466334 _2_ MAC  --- 0 CTS 38 [3294 1 0 0] 
r 150.170770910 _1_ MAC  --- 0 CTS 38 [3294 1 0 0] 
s 150.170780910 _1_ MAC  --- 65 tcp 1578 [13a 2 1 800] ------- [1:0 2:1 32 2] [11 0] 0 2
r 150.183405486 _2_ MAC  --- 65 tcp 1520 [13a 2 1 800] ------- [1:0 2:1 32 2] [11 0] 1 2
s 150.183415486 _2_ MAC  --- 0 ACK 38 [0 1 0 0] 
r 150.183430486 _2_ AGT  --- 65 tcp 1520 [13a 2 1 800] ------- [1:0 2:1 32 2] [11 0] 1 2
s 150.183430486 _2_ AGT  --- 81 ack 40 [0 0 0 0] ------- [2:1 1:0 32 0] [11 0] 0 2
r 150.183720062 _1_ MAC  --- 0 ACK 38 [0 1 0 0] 
s 150.183869486 _2_ MAC  --- 0 RTS 44 [62e 1 2 0] 
r 150.184222062 _1_ MAC  --- 0 RTS 44 [62e 1 2 0] 
s 150.184232062 _1_ MAC  --- 0 CTS 38 [4f4 2 0 0] 
r 150.184536637 _2_ MAC  --- 0 CTS 38 [4f4 2 0 0] 
s 150.184546637 _2_ MAC  --- 81 ack 118 [13a 1 2 800] ------- [2:1 1:0 32 1] [11 0] 0 2
r 150.185491213 _1_ MAC  --- 81 ack 60 [13a 1 2 800] ------- [2:1 1:0 32 1] [11 0] 1 2
s 150.185501213 _1_ MAC  --- 0 ACK 38 [0 2 0 0] 
r 150.185516213 _1_ AGT  --- 81 ack 60 [13a 1 2 800] ------- [2:1 1:0 32 1] [11 0] 1 2
s 150.185516213 _1_ AGT  --- 82 tcp 1500 [0 0 0 0] ------- [1:0 2:1 32 0] [23 0] 0 2
s 150.185516213 _1_ AGT  --- 83 tcp 1500 [0 0 0 0] ------- [1:0 2:1 32 0] [24 0] 0 2
r 150.185805789 _2_ MAC  --- 0 ACK 38 [0 2 0 0] 
s 150.186215213 _1_ MAC  --- 0 RTS 44 [33ce 2 1 0] 
r 150.186567789 _2_ MAC  --- 0 RTS 44 [33ce 2 1 0] 
s 150.186577789 _2_ MAC  --- 0 CTS 38 [3294 1 0 0] 
r 150.186882365 _1_ MAC  --- 0 CTS 38 [3294 1 0 0] 
s 150.186892365 _1_ MAC  --- 66 tcp 1578 [13a 2 1 800] ------- [1:0 2:1 32 2] [12 0] 0 2
r 150.199516941 _2_ MAC  --- 66 tcp 1520 [13a 2 1 800] ------- [1:0 2:1 32 2] [12 0] 1 2
s 150.199526941 _2_ MAC  --- 0 ACK 38 [0 1 0 0] 
r 150.199541941 _2_ AGT  --- 66 tcp 1520 [13a 2 1 800] ------- [1:0 2:1 32 2] [12 0] 1 2
s 150.199541941 _2_ AGT  --- 84 ack 40 [0 0 0 0] ------- [2:1 1:0 32 0] [12 0] 0 2
r 150.199831516 _1_ MAC  --- 0 ACK 38 [0 1 0 0] 
s 150.200201516 _1_ MAC  --- 0 RTS 44 [33ce 2 1 0] 
r 150.200554092 _2_ MAC  --- 0 RTS 44 [33ce 2 1 0] 
s 150.200564092 _2_ MAC  --- 0 CTS 38 [3294 1 0 0] 
r 150.200868668 _1_ MAC  --- 0 CTS 38 [3294 1 0 0] 
s 150.200878668 _1_ MAC  --- 67 tcp 1578 [13a 2 1 800] ------- [1:0 2:1 32 2] [13 0] 0 2
r 150.213503244 _2_ MAC  --- 67 tcp 1520 [13a 2 1 800] ------- [1:0 2:1 32 2] [13 0] 1 2
s 150.213513244 _2_ MAC  --- 0 ACK 38 [0 1 0 0] 
r 150.213528244 _2_ AGT  --- 67 tcp 1520 [13a 2 1 800] ------- [1:0 2:1 32 2] [13 0] 1 2
s 150.213528244 _2_ AGT  --- 85 ack 40 [0 0 0 0] ------- [2:1 1:0 32 0] [13 0] 0 2
r 150.213817819 _1_ MAC  --- 0 ACK 38 [0 1 0 0] 
s 150.214067244 _2_ MAC  --- 0 RTS 44 [62e 1 2 0] 
r 150.214419819 _1_ MAC  --- 0 RTS 44 [62e 1 2 0] 
s 150.214429819 _1_ MAC  --- 0 CTS 38 [4f4 2 0 0] 
r 150.214734395 _2_ MAC  --- 0 CTS 38 [4f4 2 0 0] 
s 150.214744395 _2_ MAC  --- 84 ack 118 [13a 1 2 800] ------- [2:1 1:0 32 1] [12 0] 0 2
r 150.215688971 _1_ MAC  --- 84 ack 60 [13a 1 2 800] ------- [2:1 1:0 32 1] [12 0] 1 2
s 150.215698971 _1_ MAC  --- 0 ACK 38 [0 2 0 0] 
r 150.215713971 _1_ AGT  --- 84 ack 60 [13a 1 2 800] ------- [2:1 1:0 32 1] [12 0] 1 2
s 150.215713971 _1_ AGT  --- 86 tcp 1500 [0 0 0 0] ------- [1:0 2:1 32 0] [25 0] 0 2
s 150.215713971 _1_ AGT  --- 87 tcp 1500 [0 0 0 0] ------- [1:0 2:1 32 0] [26 0] 0 2
r 150.216003547 _2_ MAC  --- 0 ACK 38 [0 2 0 0] 
s 150.216093547 _2_ MAC  --- 0 RTS 44 [62e 1 2 0] 
r 150.216446123 _1_ MAC  --- 0 RTS 44 [62e 1 2 0] 
s 150.216456123 _1_ MAC  --- 0 CTS 38 [4f4 2 0 0] 
r 150.216760698 _2_ MAC  --- 0 CTS 38 [4f4 2 0 0] 
s 150.216770698 _2_ MAC  --- 85 ack 118 [13a 1 2 800] ------- [2:1 1:0 32 1] [13 0] 0 2
r 150.217715274 _1_ MAC  --- 85 ack 60 [13a 1 2 800] ------- [2:1 1:0 32 1] [13 0] 1 2
s 150.217725274 _1_ MAC  --- 0 ACK 38 [0 2 0 0] 
r 150.217740274 _1_ AGT  --- 85 ack 60 [13a 1 2 800] ------- [2:1 1:0 32 1] [13 0] 1 2
s 150.217740274 _1_ AGT  --- 88 tcp 1500 [0 0 0 0] ------- [1:0 2:1 32 0] [27 0] 0 2
s 150.217740274 _1_ AGT  --- 89 tcp 1500 [0 0 0 0] ------- [1:0 2:1 32 0] [28 0] 0 2
r 150.218029850 _2_ MAC  --- 0 ACK 38 [0 2 0 0] 
s 150.218119274 _1_ MAC  --- 0 RTS 44 [33ce 2 1 0] 
r 150.218471850 _2_ MAC  --- 0 RTS 44 [33ce 2 1 0] 
s 150.218481850 _2_ MAC  --- 0 CTS 38 [3294 1 0 0] 
r 150.218786426 _1_ MAC  --- 0 CTS 38 [3294 1 0 0] 
s 150.218796426 _1_ MAC  --- 68 tcp 1578 [13a 2 1 800] ------- [1:0 2:1 32 2] [14 0] 0 2
r 150.231421001 _2_ MAC  --- 68 tcp 1520 [13a 2 1 800] ------- [1:0 2:1 32 2] [14 0] 1 2
s 150.231431001 _2_ MAC  --- 0 ACK 38 [0 1 0 0] 
r 150.231446001 _2_ AGT  --- 68 tcp 1520 [13a 2 1 800] ------- [1:0 2:1 32 2] [14 0] 1 2
s 150.231446001 _2_ AGT  --- 90 ack 40 [0 0 0 0] ------- [2:1 1:0 32 0] [14 0] 0 2
r 150.231735577 _1_ MAC  --- 0 ACK 38 [0 1 0 0] 
s 150.232005001 _2_ MAC  --- 0 RTS 44 [62e 1 2 0] 
r 150.232357577 _1_ MAC  --- 0 RTS 44 [62e 1 2 0] 
s 150.232367577 _1_ MAC  --- 0 CTS 38 [4f4 2 0 0] 
r 150.232672153 _2_ MAC  --- 0 CTS 38 [4f4 2 0 0] 
s 150.232682153 _2_ MAC  --- 90 ack 118 [13a 1 2 800] ------- [2:1 1:0 32 1] [14 0] 0 2
r 150.233626729 _1_ MAC  --- 90 ack 60 [13a 1 2 800] ------- [2:1 1:0 32 1] [14 0] 1 2
s 150.233636729 _1_ MAC  --- 0 ACK 38 [0 2 0 0] 
r 150.233651729 _1_ AGT  --- 90 ack 60 [13a 1 2 800] ------- [2:1 1:0 32 1] [14 0] 1 2
s 150.233651729 _1_ AGT  --- 91 tcp 1500 [0 0 0 0] ------- [1:0 2:1 32 0] [29 0] 0 2
s 150.233651729 _1_ AGT  --- 92 tcp 1500 [0 0 0 0] ------- [1:0 2:1 32 0] [30 0] 0 2
r 150.233941304 _2_ MAC  --- 0 ACK 38 [0 2 0 0] 
s 150.234130729 _1_ MAC  --- 0 RTS 44 [33ce 2 1 0] 
r 150.234483304 _2_ MAC  --- 0 RTS 44 [33ce 2 1 0] 
s 150.234493304 _2_ MAC  --- 0 CTS 38 [3294 1 0 0] 
r 150.234797880 _1_ MAC  --- 0 CTS 38 [3294 1 0 0] 
s 150.234807880 _1_ MAC  --- 70 tcp 1578 [13a 2 1 800] ------- [1:0 2:1 32 2] [15 0] 0 2
r 150.247432456 _2_ MAC  --- 70 tcp 1520 [13a 2 1 800] ------- [1:0 2:1 32 2] [15 0] 1 2
s 150.247442456 _2_ MAC  --- 0 ACK 38 [0 1 0 0] 
r 150.247457456 _2_ AGT  --- 70 tcp 1520 [13a 2 1 800] ------- [1:0 2:1 32 2] [15 0] 1 2
s 150.247457456 _2_ AGT  --- 93 ack 40 [0 0 0 0] ------- [2:1 1:0 32 0] [15 0] 0 2
r 150.247747032 _1_ MAC  --- 0 ACK 38 [0 1 0 0] 
s 150.247957032 _1_ MAC  --- 0 RTS 44 [33ce 2 1 0] 
r 150.248309608 _2_ MAC  --- 0 RTS 44 [33ce 2 1 0] 
s 150.248319608 _2_ MAC  --- 0 CTS 38 [3294 1 0 0] 
r 150.248624183 _1_ MAC  --- 0 CTS 38 [3294 1 0 0] 
s 150.248634183 _1_ MAC  --- 71 tcp 1578 [13a 2 1 800] ------- [1:0 2:1 32 2] [16 0] 0 2